/*--------------------------------*- C++ -*----------------------------------*\
  =========                 |
  \\      /  F ield         | OpenFOAM: The Open Source CFD Toolbox
   \\    /   O peration     | Website:  https://openfoam.org
    \\  /    A nd           | Version:  dev
     \\/     M anipulation  |
\*---------------------------------------------------------------------------*/
FoamFile
{
    version     2.0;
    format      ascii;
    class       volScalarField;
    location    "0.024";
    object      ddt0(nuTilda);
}
// * * * * * * * * * * * * * * * * * * * * * * * * * * * * * * * * * * * * * //

dimensions      [0 2 -2 0 0 0 0];

internalField   nonuniform List<scalar> 
197600
(
-6.727628988e-06
-8.321207204e-06
-8.045054927e-07
-8.041843551e-06
-1.008612592e-06
-2.889743383e-07
-7.99642276e-06
-9.749289471e-07
-3.589649503e-07
-1.476480814e-07
-7.996952469e-06
-9.716657909e-07
-3.473212274e-07
-1.829798256e-07
-8.913064403e-08
-7.996189733e-06
-9.718127642e-07
-3.454309843e-07
-1.770717341e-07
-1.106609445e-07
-5.965260636e-08
-7.994919538e-06
-9.718906766e-07
-3.454522997e-07
-1.761160597e-07
-1.070922524e-07
-7.406051064e-08
-4.266112211e-08
-7.993611551e-06
-9.717687561e-07
-3.454160613e-07
-1.761275398e-07
-1.065292092e-07
-7.168127207e-08
-5.302337946e-08
-3.202492941e-08
-7.992267224e-06
-9.716164788e-07
-3.453555132e-07
-1.76107867e-07
-1.065371753e-07
-7.130999944e-08
-5.131858616e-08
-3.98274882e-08
-2.491569423e-08
-7.99088078e-06
-9.714340375e-07
-3.452928373e-07
-1.760768618e-07
-1.065251288e-07
-7.131769357e-08
-5.105738521e-08
-3.855026091e-08
-3.101277849e-08
-1.99361394e-08
-7.989450072e-06
-9.712437924e-07
-3.452280818e-07
-1.760448131e-07
-1.065063415e-07
-7.130960679e-08
-5.106194242e-08
-3.834993612e-08
-3.002537997e-08
-2.484511343e-08
-1.631248287e-08
-7.987973389e-06
-9.710466993e-07
-3.451611281e-07
-1.760117959e-07
-1.064869469e-07
-7.129703362e-08
-5.105625199e-08
-3.835336892e-08
-2.985858984e-08
-2.403842305e-08
-2.032444643e-08
-1.359419307e-08
-7.986449159e-06
-9.708427698e-07
-3.450919233e-07
-1.759777092e-07
-1.064669734e-07
-7.128405124e-08
-5.104724573e-08
-3.834917161e-08
-2.98600486e-08
-2.390357979e-08
-1.96768826e-08
-1.693397917e-08
-1.150297961e-08
-7.98487587e-06
-9.70631807e-07
-3.450204018e-07
-1.759425127e-07
-1.064463564e-07
-7.127068075e-08
-5.103794997e-08
-3.834240852e-08
-2.98567814e-08
-2.390474987e-08
-1.956745959e-08
-1.640286725e-08
-1.432714942e-08
-9.859811258e-09
-7.983252024e-06
-9.70413566e-07
-3.449464894e-07
-1.759061692e-07
-1.064250705e-07
-7.125687973e-08
-5.102837721e-08
-3.833542618e-08
-2.985152991e-08
-2.390207517e-08
-1.956837209e-08
-1.63123427e-08
-1.38815922e-08
-1.229098739e-08
-8.545400121e-09
-7.981576113e-06
-9.701881532e-07
-3.448701048e-07
-1.758686413e-07
-1.064030926e-07
-7.124263109e-08
-5.101849657e-08
-3.832823454e-08
-2.984609559e-08
-2.389787528e-08
-1.956616981e-08
-1.631319076e-08
-1.380629792e-08
-1.190042292e-08
-1.066213775e-08
-7.477620611e-09
-7.979846608e-06
-9.699502824e-07
-3.447911623e-07
-1.758298912e-07
-1.063804e-07
-7.122791947e-08
-5.100829491e-08
-3.832081526e-08
-2.984049512e-08
-2.389352615e-08
-1.956273492e-08
-1.631135204e-08
-1.380730582e-08
-1.183175461e-08
-1.031601802e-08
-9.324002297e-09
-6.598257437e-09
-7.97806194e-06
-9.696992848e-07
-3.447095722e-07
-1.757898802e-07
-1.063569701e-07
-7.12127295e-08
-5.099776173e-08
-3.831315238e-08
-2.983472104e-08
-2.388904048e-08
-1.955917457e-08
-1.630849326e-08
-1.380594001e-08
-1.183740137e-08
-1.025754206e-08
-9.028374677e-09
-8.227844392e-09
-5.865494154e-09
-7.976220493e-06
-9.694381961e-07
-3.446252437e-07
-1.757485688e-07
-1.063327796e-07
-7.119704618e-08
-5.098688599e-08
-3.830524061e-08
-2.982875518e-08
-2.388442066e-08
-1.955549967e-08
-1.630552422e-08
-1.380354583e-08
-1.183642982e-08
-1.026103871e-08
-8.979303328e-09
-7.967930589e-09
-7.314560171e-09
-5.248465331e-09
-7.974320583e-06
-9.691666441e-07
-3.445380835e-07
-1.757059164e-07
-1.063078049e-07
-7.118085402e-08
-5.097565704e-08
-3.82970715e-08
-2.982259531e-08
-2.38796449e-08
-1.955172095e-08
-1.630245683e-08
-1.380102953e-08
-1.183434095e-08
-1.026012739e-08
-8.979892694e-09
-7.923915148e-09
-7.083380047e-09
-6.545373401e-09
-4.724014019e-09
-7.972360448e-06
-9.688842609e-07
-3.444479967e-07
-1.756618811e-07
-1.062820217e-07
-7.11641372e-08
-5.096406379e-08
-3.828863707e-08
-2.981623506e-08
-2.387471355e-08
-1.954781183e-08
-1.629931009e-08
-1.379841354e-08
-1.183218763e-08
-1.025832049e-08
-8.978952934e-09
-7.924454408e-09
-7.04420576e-09
-6.338297852e-09
-5.891545318e-09
-4.274483618e-09
-7.97033822e-06
-9.685907408e-07
-3.44354887e-07
-1.756164199e-07
-1.062554051e-07
-7.114687953e-08
-5.095209493e-08
-3.827992899e-08
-2.980966823e-08
-2.386962165e-08
-1.95437751e-08
-1.629605207e-08
-1.379576893e-08
-1.18299213e-08
-1.025641918e-08
-8.977376435e-09
-7.923579968e-09
-7.044685227e-09
-6.303255072e-09
-5.704876238e-09
-5.331122412e-09
-3.886309319e-09
-7.968251898e-06
-9.682858768e-07
-3.442586599e-07
-1.755694883e-07
-1.062279294e-07
-7.112906436e-08
-5.093973888e-08
-3.827093875e-08
-2.98028883e-08
-2.386436433e-08
-1.953960674e-08
-1.629268694e-08
-1.37930115e-08
-1.182762289e-08
-1.025448533e-08
-8.975656387e-09
-7.922189541e-09
-7.043905437e-09
-6.303685223e-09
-5.673346678e-09
-5.161868361e-09
-4.847139172e-09
-3.548651985e-09
-7.966099314e-06
-9.67969599e-07
-3.441592237e-07
-1.755210405e-07
-1.06199568e-07
-7.111067455e-08
-5.09269837e-08
-3.826165765e-08
-2.979588867e-08
-2.385893639e-08
-1.953530294e-08
-1.628921181e-08
-1.379016433e-08
-1.182530487e-08
-1.025240705e-08
-8.974002212e-09
-7.920701676e-09
-7.042677859e-09
-6.302990022e-09
-5.673733868e-09
-5.133351995e-09
-4.692851443e-09
-4.426308495e-09
-3.261397572e-09
-7.963878087e-06
-9.676420269e-07
-3.440564921e-07
-1.754710288e-07
-1.061702933e-07
-7.109169236e-08
-5.091381716e-08
-3.825207674e-08
-2.978866255e-08
-2.385333253e-08
-1.953085946e-08
-1.62856238e-08
-1.378722294e-08
-1.182286639e-08
-1.025048897e-08
-8.972262621e-09
-7.919247039e-09
-7.04115089e-09
-6.301885183e-09
-5.673109462e-09
-5.133701862e-09
-4.666938597e-09
-4.284966386e-09
-4.059056733e-09
-3.011444107e-09
-7.961585571e-06
-9.673035171e-07
-3.439503866e-07
-1.75419404e-07
-1.061400767e-07
-7.107209942e-08
-5.090022658e-08
-3.824218684e-08
-2.978120297e-08
-2.38475473e-08
-1.952627192e-08
-1.628191931e-08
-1.378418588e-08
-1.182034512e-08
-1.02483753e-08
-8.970525973e-09
-7.917723691e-09
-7.040029548e-09
-6.30053174e-09
-5.672113738e-09
-5.133136817e-09
-4.66725575e-09
-4.261320639e-09
-3.928170966e-09
-3.73717649e-09
-3.011890922e-09
-7.959218794e-06
-9.669547314e-07
-3.438408404e-07
-1.753661143e-07
-1.061088877e-07
-7.105187657e-08
-5.088619883e-08
-3.823197841e-08
-2.977350278e-08
-2.384157514e-08
-1.952153589e-08
-1.627809471e-08
-1.378105025e-08
-1.181774118e-08
-1.024618988e-08
-8.968674043e-09
-7.916146972e-09
-7.038695312e-09
-6.299471838e-09
-5.671069337e-09
-5.132240512e-09
-4.666742525e-09
-4.261609008e-09
-3.9063968e-09
-3.615175005e-09
-3.73730476e-09
-3.261838203e-09
-7.956774381e-06
-9.665967074e-07
-3.437278025e-07
-1.753111059e-07
-1.060766951e-07
-7.103100322e-08
-5.087172028e-08
-3.822144164e-08
-2.976555458e-08
-2.383541032e-08
-1.951664679e-08
-1.627414628e-08
-1.377781291e-08
-1.181505275e-08
-1.024393261e-08
-8.966760991e-09
-7.914513812e-09
-7.037298813e-09
-6.298330382e-09
-5.670002653e-09
-5.131301614e-09
-4.665924391e-09
-4.261141377e-09
-3.906640118e-09
-3.595014302e-09
-3.615186415e-09
-4.059184079e-09
-3.548601563e-09
-7.954248465e-06
-9.662309402e-07
-3.436112423e-07
-1.752543222e-07
-1.060434654e-07
-7.100945854e-08
-5.085677587e-08
-3.821056632e-08
-2.975735073e-08
-2.382904691e-08
-1.951159994e-08
-1.62700702e-08
-1.377447074e-08
-1.181227709e-08
-1.024160209e-08
-8.964785505e-09
-7.912825476e-09
-7.03584801e-09
-6.297076484e-09
-5.668915503e-09
-5.130212815e-09
-4.665076323e-09
-4.26039443e-09
-3.906211101e-09
-3.595211792e-09
-3.595016914e-09
-3.928182277e-09
-4.426340022e-09
-3.886270984e-09
-7.951636588e-06
-9.658594696e-07
-3.434911558e-07
-1.751957033e-07
-1.060091631e-07
-7.098722015e-08
-5.084135091e-08
-3.819934101e-08
-2.974888332e-08
-2.382247883e-08
-1.95063905e-08
-1.626586259e-08
-1.37710205e-08
-1.180941153e-08
-1.023919593e-08
-8.962745885e-09
-7.911082148e-09
-7.034346954e-09
-6.29577862e-09
-5.667786572e-09
-5.129333857e-09
-4.664198543e-09
-4.259620516e-09
-3.905526233e-09
-3.594816269e-09
-3.595211563e-09
-3.906399356e-09
-4.284963829e-09
-4.847166128e-09
-4.274438156e-09
-7.948933589e-06
-9.654849774e-07
-3.433675722e-07
-1.751351839e-07
-1.059737501e-07
-7.096426416e-08
-5.082542941e-08
-3.818775466e-08
-2.974014339e-08
-2.381569975e-08
-1.95010135e-08
-1.62615194e-08
-1.37674589e-08
-1.180645328e-08
-1.023671182e-08
-8.960640052e-09
-7.909282166e-09
-7.032797127e-09
-6.294435267e-09
-5.666618547e-09
-5.128324129e-09
-4.663293655e-09
-4.258821747e-09
-3.904816344e-09
-3.594185201e-09
-3.594815883e-09
-3.90663982e-09
-4.261320426e-09
-4.692848322e-09
-5.331148179e-09
-4.723968388e-09
-7.94613345e-06
-9.651108891e-07
-3.432405625e-07
-1.750726949e-07
-1.059371853e-07
-7.09405649e-08
-5.080899429e-08
-3.817579538e-08
-2.97311222e-08
-2.380870256e-08
-1.949546377e-08
-1.62570365e-08
-1.376378252e-08
-1.180339952e-08
-1.023414733e-08
-8.958465967e-09
-7.907423728e-09
-7.031196892e-09
-6.293048391e-09
-5.665409408e-09
-5.127264744e-09
-4.662366595e-09
-4.257996949e-09
-3.904084493e-09
-3.593531449e-09
-3.594184569e-09
-3.906210689e-09
-4.261608493e-09
-4.666938169e-09
-5.161865101e-09
-5.891570021e-09
-5.248417392e-09
-7.943229243e-06
-9.647414955e-07
-3.431102482e-07
-1.750081652e-07
-1.05899424e-07
-7.091609463e-08
-5.079202724e-08
-3.816345043e-08
-2.972181068e-08
-2.380147996e-08
-1.948973561e-08
-1.625240961e-08
-1.375998786e-08
-1.180024734e-08
-1.023150003e-08
-8.956221525e-09
-7.905505038e-09
-7.029544668e-09
-6.291616392e-09
-5.664161067e-09
-5.126170558e-09
-4.661404114e-09
-4.257145857e-09
-3.90332845e-09
-3.592857512e-09
-3.593530673e-09
-3.905525416e-09
-4.261140793e-09
-4.667255222e-09
-5.13335149e-09
-5.70487292e-09
-6.54539684e-09
-5.865444582e-09
-7.940212615e-06
-9.643819265e-07
-3.429768154e-07
-1.749415159e-07
-1.058604173e-07
-7.08908231e-08
-5.077450845e-08
-3.81507061e-08
-2.971219894e-08
-2.379402491e-08
-1.948382265e-08
-1.624763417e-08
-1.375607132e-08
-1.179699373e-08
-1.022876738e-08
-8.953904579e-09
-7.903524237e-09
-7.02783886e-09
-6.290137857e-09
-5.662872095e-09
-5.12504097e-09
-4.660409416e-09
-4.256266552e-09
-3.902547719e-09
-3.592161545e-09
-3.592856606e-09
-3.904815014e-09
-4.26039403e-09
-4.666741812e-09
-5.133701202e-09
-5.673346164e-09
-6.338294472e-09
-7.31458225e-09
-6.598206225e-09
-7.937067703e-06
-9.640393406e-07
-3.428405275e-07
-1.748726618e-07
-1.058201115e-07
-7.086471719e-08
-5.075641636e-08
-3.813754762e-08
-2.970227639e-08
-2.378632955e-08
-1.947771938e-08
-1.624270434e-08
-1.375202919e-08
-1.179363561e-08
-1.022594679e-08
-8.951512925e-09
-7.901479429e-09
-7.026077812e-09
-6.288611355e-09
-5.661541224e-09
-5.123874612e-09
-4.659382397e-09
-4.255358361e-09
-3.901741484e-09
-3.591442811e-09
-3.592160425e-09
-3.904082641e-09
-4.259619205e-09
-4.665924043e-09
-5.133135469e-09
-5.673732922e-09
-6.303254439e-09
-7.08337662e-09
-8.227878538e-09
-7.477569117e-09
-7.933845405e-06
-9.637411669e-07
-3.427017765e-07
-1.748015096e-07
-1.057784472e-07
-7.083774038e-08
-5.073772735e-08
-3.812395896e-08
-2.969203163e-08
-2.377838546e-08
-1.94714194e-08
-1.623761579e-08
-1.374785629e-08
-1.179016984e-08
-1.022303561e-08
-8.949044287e-09
-7.899368669e-09
-7.024259839e-09
-6.287035401e-09
-5.660167157e-09
-5.122670328e-09
-4.658321948e-09
-4.254420568e-09
-3.900908926e-09
-3.590700565e-09
-3.591441371e-09
-3.903326214e-09
-4.258820332e-09
-4.665075602e-09
-5.132236006e-09
-5.673106748e-09
-6.303683612e-09
-7.04420504e-09
-7.967940927e-09
-9.323900683e-09
-8.54535075e-09
-7.930534496e-06
-9.632886262e-07
-3.42561349e-07
-1.747279598e-07
-1.057353583e-07
-7.080985213e-08
-5.071841545e-08
-3.810992256e-08
-2.968145231e-08
-2.37701836e-08
-1.946491587e-08
-1.623236328e-08
-1.374354886e-08
-1.178659224e-08
-1.022003109e-08
-8.946496346e-09
-7.897189948e-09
-7.022383211e-09
-6.285408485e-09
-5.65874856e-09
-5.121426942e-09
-4.657227006e-09
-4.253452228e-09
-3.90004921e-09
-3.589934048e-09
-3.590698685e-09
-3.902544877e-09
-4.257995243e-09
-4.664200688e-09
-5.131302901e-09
-5.672112614e-09
-6.302987119e-09
-7.04468319e-09
-7.923915307e-09
-9.028399423e-09
-1.066195289e-08
-9.859755734e-09
-7.927111182e-06
-9.626681381e-07
-3.424107157e-07
-1.746519147e-07
-1.056907728e-07
-7.07810079e-08
-5.069845178e-08
-3.809541916e-08
-2.967052496e-08
-2.37617142e-08
-1.945820147e-08
-1.622694112e-08
-1.373910265e-08
-1.178289891e-08
-1.021693007e-08
-8.94386672e-09
-7.894941231e-09
-7.020446144e-09
-6.283729058e-09
-5.657284069e-09
-5.120143243e-09
-4.656096497e-09
-4.252452378e-09
-3.899161473e-09
-3.589142491e-09
-3.5899316e-09
-3.901737803e-09
-4.257142984e-09
-4.663297062e-09
-5.130340532e-09
-5.67108148e-09
-6.301882483e-09
-7.043904028e-09
-7.924453085e-09
-8.979283366e-09
-1.031602453e-08
-1.229129607e-08
-1.150292379e-08
-7.923563461e-06
-9.619541484e-07
-3.422488344e-07
-1.745727103e-07
-1.056446111e-07
-7.07511553e-08
-5.067780487e-08
-3.808042744e-08
-2.965923483e-08
-2.375296665e-08
-1.945126831e-08
-1.622134328e-08
-1.373451289e-08
-1.177908657e-08
-1.021372827e-08
-8.941152989e-09
-7.892620413e-09
-7.01844683e-09
-6.281995523e-09
-5.655772292e-09
-5.118817994e-09
-4.654929315e-09
-4.251420033e-09
-3.898244835e-09
-3.588325097e-09
-3.589139311e-09
-3.900904139e-09
-4.256262658e-09
-4.66236368e-09
-5.129346594e-09
-5.670017861e-09
-6.300736946e-09
-7.042669447e-09
-7.923576106e-09
-8.979915403e-09
-1.025813333e-08
-1.190040954e-08
-1.432703531e-08
-1.359413912e-08
-7.919887413e-06
-9.611669853e-07
-3.420767338e-07
-1.74490126e-07
-1.055966711e-07
-7.072024843e-08
-5.065643696e-08
-3.806492397e-08
-2.964756562e-08
-2.374392933e-08
-1.944410782e-08
-1.621556326e-08
-1.372977451e-08
-1.177515119e-08
-1.021042326e-08
-8.938350933e-09
-7.890225368e-09
-7.016383399e-09
-6.280206268e-09
-5.654211785e-09
-5.117449936e-09
-4.653724338e-09
-4.250354185e-09
-3.897298396e-09
-3.587481045e-09
-3.588320992e-09
-3.900042995e-09
-4.255353342e-09
-4.661399557e-09
-5.128319926e-09
-5.668919345e-09
-6.299555226e-09
-7.041389256e-09
-7.922187234e-09
-8.978944357e-09
-1.026107591e-08
-1.183150928e-08
-1.388154116e-08
-1.693382861e-08
-1.631242969e-08
-7.916072114e-06
-9.602860576e-07
-3.418976334e-07
-1.744041628e-07
-1.055467533e-07
-7.068817825e-08
-5.063431506e-08
-3.804888214e-08
-2.963549953e-08
-2.373458951e-08
-1.943671068e-08
-1.620959404e-08
-1.372488209e-08
-1.177108847e-08
-1.020701163e-08
-8.935458309e-09
-7.8877531e-09
-7.014253964e-09
-6.278359613e-09
-5.652601098e-09
-5.116037757e-09
-4.652480413e-09
-4.249253801e-09
-3.896321219e-09
-3.586609495e-09
-3.587475783e-09
-3.899153453e-09
-4.254414072e-09
-4.660403677e-09
-5.127259438e-09
-5.667784661e-09
-6.298334704e-09
-7.040068613e-09
-7.920747056e-09
-8.977369494e-09
-1.026011884e-08
-1.183745316e-08
-1.380594772e-08
-1.640282867e-08
-2.032422765e-08
-1.993608744e-08
-7.912109479e-06
-9.592934409e-07
-3.417120421e-07
-1.743146214e-07
-1.054948016e-07
-7.065479106e-08
-5.061138745e-08
-3.803227391e-08
-2.962301611e-08
-2.372493307e-08
-1.942906674e-08
-1.6203428e-08
-1.371982979e-08
-1.176689381e-08
-1.020348968e-08
-8.9324724e-09
-7.885200251e-09
-7.012056623e-09
-6.276453873e-09
-5.650938723e-09
-5.114580142e-09
-4.651196348e-09
-4.24811783e-09
-3.895312364e-09
-3.585709581e-09
-3.586602805e-09
-3.898234553e-09
-4.253443847e-09
-4.659374985e-09
-5.126164018e-09
-5.666612605e-09
-6.297074013e-09
-7.038704567e-09
-7.919261496e-09
-8.975737514e-09
-1.025831175e-08
-1.183642372e-08
-1.380731548e-08
-1.631232254e-08
-1.967690868e-08
-2.484565374e-08
-2.491563392e-08
-7.907991013e-06
-9.581870279e-07
-3.415173356e-07
-1.742212183e-07
-1.054406915e-07
-7.062004396e-08
-5.05875063e-08
-3.801507071e-08
-2.961009553e-08
-2.371494514e-08
-1.942116462e-08
-1.619705684e-08
-1.371461128e-08
-1.17625623e-08
-1.019985349e-08
-8.929390007e-09
-7.882565067e-09
-7.009787183e-09
-6.274487329e-09
-5.649223138e-09
-5.113075732e-09
-4.649870944e-09
-4.246945179e-09
-3.894270857e-09
-3.584780415e-09
-3.585701131e-09
-3.897285306e-09
-4.252441628e-09
-4.658312385e-09
-5.125032504e-09
-5.665401943e-09
-6.29577181e-09
-7.03729565e-09
-7.91772704e-09
-8.974054067e-09
-1.025644706e-08
-1.183433201e-08
-1.380594024e-08
-1.631318607e-08
-1.956745073e-08
-2.403839401e-08
-3.101292644e-08
-3.202486762e-08
-7.903717661e-06
-9.569808987e-07
-3.413145827e-07
-1.741236343e-07
-1.053842553e-07
-7.058385507e-08
-5.056265395e-08
-3.799716828e-08
-2.959671137e-08
-2.370460551e-08
-1.941299296e-08
-1.619047147e-08
-1.370921972e-08
-1.175808863e-08
-1.019609885e-08
-8.926207741e-09
-7.879844799e-09
-7.007444376e-09
-6.272457545e-09
-5.647452786e-09
-5.111523139e-09
-4.64850296e-09
-4.245734745e-09
-3.893195696e-09
-3.583821094e-09
-3.584769822e-09
-3.896304677e-09
-4.25140634e-09
-4.657214737e-09
-5.123863686e-09
-5.664151383e-09
-6.294426713e-09
-7.035840354e-09
-7.916142135e-09
-8.972315157e-09
-1.025452346e-08
-1.18321784e-08
-1.380353736e-08
-1.631134808e-08
-1.956837085e-08
-2.390357898e-08
-3.002545437e-08
-3.982760965e-08
-4.266105954e-08
-7.899248515e-06
-9.555267843e-07
-3.411028631e-07
-1.740215323e-07
-1.05325305e-07
-7.054611702e-08
-5.053677445e-08
-3.797852819e-08
-2.958280707e-08
-2.369390328e-08
-1.940453405e-08
-1.61836621e-08
-1.370364767e-08
-1.175346707e-08
-1.019222128e-08
-8.922921993e-09
-7.877036498e-09
-7.005025993e-09
-6.270361095e-09
-5.645626118e-09
-5.109920957e-09
-4.647091135e-09
-4.244485394e-09
-3.892085863e-09
-3.582830674e-09
-3.583807902e-09
-3.895291601e-09
-4.250336859e-09
-4.656080858e-09
-5.122656307e-09
-5.662859591e-09
-6.293037288e-09
-7.034337125e-09
-7.914505069e-09
-8.970519101e-09
-1.025253633e-08
-1.182995892e-08
-1.380102557e-08
-1.630848569e-08
-1.956616545e-08
-2.390474497e-08
-2.985863268e-08
-3.855073282e-08
-5.302347632e-08
-5.965258165e-08
-7.894775435e-06
-9.542598728e-07
-3.408821487e-07
-1.739145377e-07
-1.052636356e-07
-7.050670583e-08
-5.050979198e-08
-3.795911612e-08
-2.956832431e-08
-2.368281002e-08
-1.939578794e-08
-1.617661746e-08
-1.369788669e-08
-1.17486914e-08
-1.018821592e-08
-8.919528921e-09
-7.874137041e-09
-7.002529449e-09
-6.268197022e-09
-5.643739995e-09
-5.108267761e-09
-4.645634182e-09
-4.243195972e-09
-3.890940312e-09
-3.581808202e-09
-3.582814361e-09
-3.894244973e-09
-4.249232026e-09
-4.654909514e-09
-5.121409061e-09
-5.661525171e-09
-6.291602047e-09
-7.032784357e-09
-7.912814091e-09
-8.968663959e-09
-1.025048394e-08
-1.182766638e-08
-1.379843641e-08
-1.630551907e-08
-1.956272774e-08
-2.390206728e-08
-2.985980199e-08
-3.834997956e-08
-5.131869301e-08
-7.40605535e-08
-8.913046076e-08
-7.889909993e-06
-9.519428418e-07
-3.406531873e-07
-1.738022442e-07
-1.051990281e-07
-7.046548629e-08
-5.048162038e-08
-3.793888358e-08
-2.95532373e-08
-2.367123277e-08
-1.938670873e-08
-1.616932627e-08
-1.369192982e-08
-1.174375496e-08
-1.018407758e-08
-8.916024403e-09
-7.871143115e-09
-6.999952025e-09
-6.265963115e-09
-5.64179219e-09
-5.106562108e-09
-4.644130791e-09
-4.241865289e-09
-3.889757983e-09
-3.580752693e-09
-3.581788155e-09
-3.893163641e-09
-4.248090639e-09
-4.653699429e-09
-5.120120588e-09
-5.66014668e-09
-6.290119437e-09
-7.031180382e-09
-7.911067391e-09
-8.966747735e-09
-1.024836406e-08
-1.182529861e-08
-1.379576224e-08
-1.630246017e-08
-1.955916815e-08
-2.389786779e-08
-2.985677207e-08
-3.835347969e-08
-5.105728418e-08
-7.168130752e-08
-1.10660942e-07
-1.476478924e-07
-7.886341226e-06
-9.513560451e-07
-3.403875253e-07
-1.73684211e-07
-1.051312464e-07
-7.042231375e-08
-5.045216485e-08
-3.791776652e-08
-2.95375154e-08
-2.365917742e-08
-1.937727108e-08
-1.616177393e-08
-1.368575624e-08
-1.173865011e-08
-1.017980057e-08
-8.912404019e-09
-7.868051189e-09
-6.997290848e-09
-6.263656987e-09
-5.639781614e-09
-5.104800511e-09
-4.642579641e-09
-4.240492157e-09
-3.888537776e-09
-3.579663143e-09
-3.580728212e-09
-3.892046411e-09
-4.246911443e-09
-4.652449273e-09
-5.118789479e-09
-5.658722605e-09
-6.288587849e-09
-7.029523462e-09
-7.909263085e-09
-8.964768368e-09
-1.02461744e-08
-1.182285301e-08
-1.37930004e-08
-1.629930056e-08
-1.955549863e-08
-2.389351823e-08
-2.985152105e-08
-3.834916766e-08
-5.106207462e-08
-7.131022413e-08
-1.070921358e-07
-1.829798346e-07
-2.889741474e-07
-7.848362377e-06
-9.47040279e-07
-3.401324547e-07
-1.735599271e-07
-1.050600343e-07
-7.037703826e-08
-5.042132336e-08
-3.789569472e-08
-2.952111357e-08
-2.364662351e-08
-1.93674384e-08
-1.615394492e-08
-1.367939357e-08
-1.173337078e-08
-1.017537883e-08
-8.908663024e-09
-7.864857491e-09
-6.994542877e-09
-6.261276136e-09
-5.637706189e-09
-5.10298145e-09
-4.640979406e-09
-4.239075334e-09
-3.887278581e-09
-3.578538527e-09
-3.579633427e-09
-3.890892047e-09
-4.24569314e-09
-4.651157667e-09
-5.11741426e-09
-5.657251385e-09
-6.287005601e-09
-7.027811795e-09
-7.907399217e-09
-8.962723722e-09
-1.024391259e-08
-1.182032692e-08
-1.379014782e-08
-1.629603743e-08
-1.955170837e-08
-2.388903514e-08
-2.984608534e-08
-3.834240175e-08
-5.10562474e-08
-7.131776664e-08
-1.065292186e-07
-1.770713621e-07
-3.589650415e-07
-8.045035581e-07
-8.469621919e-06
-9.463012545e-07
-3.398011443e-07
-1.734286206e-07
-1.049851715e-07
-7.032948433e-08
-5.03889949e-08
-3.787259312e-08
-2.950397807e-08
-2.363352973e-08
-1.935718348e-08
-1.61457644e-08
-1.367276306e-08
-1.172790168e-08
-1.017080566e-08
-8.904796294e-09
-7.861558009e-09
-6.991704881e-09
-6.258817932e-09
-5.635563726e-09
-5.101103859e-09
-4.639326996e-09
-4.237613586e-09
-3.885979269e-09
-3.577377782e-09
-3.57850266e-09
-3.88969927e-09
-4.244434376e-09
-4.649823173e-09
-5.115993405e-09
-5.655731383e-09
-6.285370948e-09
-7.026043495e-09
-7.905473751e-09
-8.960611577e-09
-1.024157619e-08
-1.181771761e-08
-1.378720138e-08
-1.629266714e-08
-1.954779401e-08
-2.388440474e-08
-2.984048516e-08
-3.833540964e-08
-5.104723706e-08
-7.130959644e-08
-1.065371075e-07
-1.761160726e-07
-3.473212089e-07
-1.008612648e-06
-6.72762835e-06
-1.003291739e-06
-3.733734493e-06
-3.387972183e-07
-1.732949775e-07
-1.049060627e-07
-7.027956534e-08
-5.035504575e-08
-3.784839015e-08
-2.948605134e-08
-2.361985532e-08
-1.934649433e-08
-1.613724193e-08
-1.366587519e-08
-1.172224602e-08
-1.016607109e-08
-8.900798238e-09
-7.858148355e-09
-6.988773447e-09
-6.256279599e-09
-5.633351939e-09
-5.099165828e-09
-4.637620364e-09
-4.236105666e-09
-3.884638669e-09
-3.576179833e-09
-3.577334737e-09
-3.888466748e-09
-4.243133749e-09
-4.648444294e-09
-5.114525316e-09
-5.654160897e-09
-6.283682063e-09
-7.024216606e-09
-7.903484564e-09
-8.958429616e-09
-1.023916265e-08
-1.181502225e-08
-1.378415788e-08
-1.628918599e-08
-1.954375116e-08
-2.387962284e-08
-2.98347008e-08
-3.832821649e-08
-5.103792473e-08
-7.129702241e-08
-1.065251076e-07
-1.761274674e-07
-3.454309533e-07
-9.749322124e-07
-8.321206324e-06
-3.514964335e-07
-3.655934454e-07
-5.598238006e-06
-1.097590949e-06
-1.728630886e-07
-1.048240328e-07
-7.022672809e-08
-5.0319472e-08
-3.782298085e-08
-2.946727881e-08
-2.360555715e-08
-1.933534141e-08
-1.612836466e-08
-1.365870209e-08
-1.171637213e-08
-1.016118062e-08
-8.896663985e-09
-7.854624198e-09
-6.98574489e-09
-6.253658228e-09
-5.631068441e-09
-5.097165365e-09
-4.635858975e-09
-4.234550358e-09
-3.883255609e-09
-3.574943589e-09
-3.576128441e-09
-3.887193104e-09
-4.241789802e-09
-4.647019465e-09
-5.113008326e-09
-5.65253815e-09
-6.281937045e-09
-7.02232908e-09
-7.90142945e-09
-8.956175436e-09
-1.023666933e-08
-1.18122379e-08
-1.378101401e-08
-1.628559018e-08
-1.953957536e-08
-2.387468406e-08
-2.982872741e-08
-3.832078929e-08
-5.102834808e-08
-7.12837997e-08
-1.065063221e-07
-1.76107863e-07
-3.454526241e-07
-9.716706634e-07
-8.041842474e-06
-1.776618477e-07
-2.32912165e-07
-2.003738622e-07
-7.61805121e-06
-8.904779151e-07
-2.388494658e-07
-1.045912605e-07
-7.017077822e-08
-5.028169039e-08
-3.779639993e-08
-2.944758371e-08
-2.359059163e-08
-1.93236858e-08
-1.611910364e-08
-1.365121335e-08
-1.171025096e-08
-1.015611248e-08
-8.892379229e-09
-7.850979039e-09
-6.982615435e-09
-6.250950692e-09
-5.628710751e-09
-5.095100415e-09
-4.634041119e-09
-4.232942756e-09
-3.881828888e-09
-3.573667899e-09
-3.574882524e-09
-3.88587691e-09
-4.240401014e-09
-4.645547063e-09
-5.111440696e-09
-5.650861282e-09
-6.280133905e-09
-7.020378777e-09
-7.899306091e-09
-8.953846521e-09
-1.023409346e-08
-1.180936149e-08
-1.377776634e-08
-1.628187579e-08
-1.953526204e-08
-2.38695829e-08
-2.982255822e-08
-3.831311693e-08
-5.101845952e-08
-7.127062551e-08
-1.064864683e-07
-1.76076835e-07
-3.454163324e-07
-9.71818811e-07
-7.996421106e-06
-1.067465528e-07
-1.292700242e-07
-1.484102085e-07
-1.422812985e-07
-8.306371344e-06
-8.116498668e-07
-2.867990512e-07
-1.031489547e-07
-7.002757923e-08
-5.024086413e-08
-3.776803909e-08
-2.942698586e-08
-2.357490376e-08
-1.931149261e-08
-1.610942947e-08
-1.364340558e-08
-1.170385997e-08
-1.015082503e-08
-8.887959643e-09
-7.847213546e-09
-6.979380727e-09
-6.248153887e-09
-5.626276231e-09
-5.092968858e-09
-4.63216502e-09
-4.231283767e-09
-3.880357275e-09
-3.572351622e-09
-3.573595706e-09
-3.884516668e-09
-4.238965803e-09
-4.644025387e-09
-5.109820608e-09
-5.649128345e-09
-6.278270557e-09
-7.018363458e-09
-7.897112074e-09
-8.951440242e-09
-1.023143218e-08
-1.180638986e-08
-1.37744113e-08
-1.627803877e-08
-1.953080649e-08
-2.386431376e-08
-2.981618623e-08
-3.830519277e-08
-5.100824804e-08
-7.125682862e-08
-1.064668835e-07
-1.760445168e-07
-3.453558883e-07
-9.718988455e-07
-7.996950177e-06
-7.110975731e-08
-8.336060276e-08
-9.271075255e-08
-9.67100207e-08
-9.756533558e-08
-8.366569594e-06
-8.375194654e-07
-3.344997265e-07
-1.581526194e-07
-8.885190346e-08
-5.014345972e-08
-3.773694292e-08
-2.940498194e-08
-2.355848827e-08
-1.929871568e-08
-1.609931782e-08
-1.363525681e-08
-1.169719672e-08
-1.014532782e-08
-8.88337478e-09
-7.84330602e-09
-6.976035998e-09
-6.245263882e-09
-5.623762257e-09
-5.09076848e-09
-4.630228872e-09
-4.229571977e-09
-3.878839479e-09
-3.570993556e-09
-3.572266654e-09
-3.883110833e-09
-4.237482522e-09
-4.64245266e-09
-5.108146155e-09
-5.6473373e-09
-6.276344815e-09
-7.01628078e-09
-7.894844864e-09
-8.948953852e-09
-1.022868247e-08
-1.180331966e-08
-1.377094517e-08
-1.627407489e-08
-1.952620384e-08
-2.38588709e-08
-2.980960446e-08
-3.829700842e-08
-5.099769813e-08
-7.124256597e-08
-1.064462854e-07
-1.760117111e-07
-3.45293336e-07
-9.717798309e-07
-7.996186562e-06
-5.069963256e-08
-5.814053557e-08
-6.418924081e-08
-6.745022792e-08
-6.833398273e-08
-6.926596451e-08
-8.421565014e-06
-8.731672072e-07
-3.53381073e-07
-1.902514321e-07
-1.087304879e-07
-7.123023837e-08
-3.766463136e-08
-2.938084877e-08
-2.35409742e-08
-1.928535692e-08
-1.608871538e-08
-1.362674869e-08
-1.169024741e-08
-1.013959112e-08
-8.878582167e-09
-7.839275568e-09
-6.972579772e-09
-6.242278449e-09
-5.621165746e-09
-5.088497091e-09
-4.628230823e-09
-4.227805844e-09
-3.877273837e-09
-3.569592487e-09
-3.570893969e-09
-3.881657784e-09
-4.235949436e-09
-4.640827018e-09
-5.106415335e-09
-5.645486003e-09
-6.274354379e-09
-7.01412827e-09
-7.892501801e-09
-8.946384462e-09
-1.022584117e-08
-1.180014741e-08
-1.376736406e-08
-1.626997974e-08
-1.952144902e-08
-2.385324834e-08
-2.98028057e-08
-3.828855465e-08
-5.098680194e-08
-7.122783158e-08
-1.064249769e-07
-1.75977626e-07
-3.452331452e-07
-9.716206764e-07
-7.994915142e-06
-3.794350365e-08
-4.288118521e-08
-4.706792434e-08
-4.976985803e-08
-5.117671402e-08
-5.221332688e-08
-5.286150264e-08
-8.522349284e-06
-9.052758342e-07
-3.610027734e-07
-1.997656281e-07
-1.213030313e-07
-7.818427595e-08
-5.466171848e-08
-2.93239642e-08
-2.352183275e-08
-1.927106913e-08
-1.607768065e-08
-1.361781258e-08
-1.168299902e-08
-1.013359671e-08
-8.873604961e-09
-7.835100678e-09
-6.968993089e-09
-6.239190019e-09
-5.618484168e-09
-5.086152189e-09
-4.626169057e-09
-4.225983825e-09
-3.875656572e-09
-3.568147132e-09
-3.569476224e-09
-3.880155832e-09
-4.234364734e-09
-4.639146504e-09
-5.104626046e-09
-5.643572198e-09
-6.272296832e-09
-7.01190333e-09
-7.890080087e-09
-8.943729041e-09
-1.022290497e-08
-1.179686948e-08
-1.376366389e-08
-1.626574874e-08
-1.951653674e-08
-2.38474399e-08
-2.979578249e-08
-3.82798222e-08
-5.097554718e-08
-7.121261317e-08
-1.064029664e-07
-1.759423914e-07
-3.451618362e-07
-9.714395819e-07
-7.99360546e-06
-2.945668689e-08
-3.296238708e-08
-3.602565132e-08
-3.816490055e-08
-3.95812368e-08
-4.08183016e-08
-4.187546815e-08
-4.244196212e-08
-8.627641522e-06
-9.349882768e-07
-3.680551333e-07
-2.022789821e-07
-1.257871754e-07
-8.440033435e-08
-5.826017915e-08
-4.307681577e-08
-2.347783468e-08
-1.925584152e-08
-1.606570261e-08
-1.360858564e-08
-1.16753737e-08
-1.012735651e-08
-8.868406659e-09
-7.830735507e-09
-6.96530329e-09
-6.236003433e-09
-5.615713851e-09
-5.083731811e-09
-4.624041594e-09
-4.224104435e-09
-3.873988627e-09
-3.566656185e-09
-3.568011926e-09
-3.878603203e-09
-4.232726515e-09
-4.637409064e-09
-5.102776069e-09
-5.641593501e-09
-6.270169619e-09
-7.009603219e-09
-7.887576766e-09
-8.940984387e-09
-1.021987039e-08
-1.1793482e-08
-1.375984041e-08
-1.626137705e-08
-1.951146148e-08
-2.38414391e-08
-2.97885271e-08
-3.827080149e-08
-5.096392143e-08
-7.119689405e-08
-1.063802326e-07
-1.759059983e-07
-3.450925224e-07
-9.712489549e-07
-7.992258733e-06
-2.355683411e-08
-2.616058334e-08
-2.843433105e-08
-3.01744742e-08
-3.152894945e-08
-3.268673085e-08
-3.380779192e-08
-3.467192912e-08
-3.50653883e-08
-8.728252704e-06
-9.62184892e-07
-3.743448723e-07
-2.042396681e-07
-1.26488111e-07
-8.720403785e-08
-6.211199357e-08
-4.566309249e-08
-3.687855013e-08
-1.922169837e-08
-1.605324137e-08
-1.359831551e-08
-1.16675539e-08
-1.012078273e-08
-8.86297963e-09
-7.826183647e-09
-6.961467019e-09
-6.232690808e-09
-5.612850721e-09
-5.081232622e-09
-4.621846801e-09