/*--------------------------------*- C++ -*----------------------------------*\
  =========                 |
  \\      /  F ield         | OpenFOAM: The Open Source CFD Toolbox
   \\    /   O peration     | Website:  https://openfoam.org
    \\  /    A nd           | Version:  dev
     \\/     M anipulation  |
\*---------------------------------------------------------------------------*/
FoamFile
{
    version     2.0;
    format      ascii;
    class       volScalarField;
    location    "0.024";
    object      nut;
}
// * * * * * * * * * * * * * * * * * * * * * * * * * * * * * * * * * * * * * //

dimensions      [0 2 -1 0 0 0 0];

internalField   nonuniform List<scalar> 
197600
(
5.162549238e-07
5.065670125e-07
5.96015174e-07
5.08368437e-07
5.946800017e-07
6.028819315e-07
5.085615093e-07
5.949139565e-07
6.024247955e-07
6.047803046e-07
5.085683575e-07
5.949251877e-07
6.025064326e-07
6.045483495e-07
6.055641794e-07
5.085823809e-07
5.949250652e-07
6.025151606e-07
6.045898465e-07
6.054228586e-07
6.059605253e-07
5.08598272e-07
5.949258653e-07
6.025154786e-07
6.045942689e-07
6.05447948e-07
6.058657575e-07
6.061886622e-07
5.086146447e-07
5.949276401e-07
6.025161431e-07
6.045944307e-07
6.054505565e-07
6.058825444e-07
6.061205109e-07
6.063317194e-07
5.086315289e-07
5.949296724e-07
6.025169061e-07
6.045947746e-07
6.054506533e-07
6.058842475e-07
6.061325675e-07
6.062803625e-07
6.064273239e-07
5.086489574e-07
5.949319124e-07
6.025176944e-07
6.045951651e-07
6.05450862e-07
6.058843095e-07
6.061337654e-07
6.062894221e-07
6.063872015e-07
6.064943374e-07
5.086669517e-07
5.949342677e-07
6.02518509e-07
6.045955682e-07
6.054510985e-07
6.058844494e-07
6.061338079e-07
6.062903459e-07
6.063942234e-07
6.064621351e-07
6.065431208e-07
5.086855316e-07
5.949367173e-07
6.025193507e-07
6.045959844e-07
6.054513426e-07
6.058846078e-07
6.061339078e-07
6.062903772e-07
6.06395e-07
6.06467767e-07
6.065167973e-07
6.065797311e-07
5.087047161e-07
5.949392612e-07
6.025202204e-07
6.045964142e-07
6.054515946e-07
6.058847713e-07
6.061340213e-07
6.06290452e-07
6.063950288e-07
6.064683913e-07
6.065213288e-07
6.065578068e-07
6.066079051e-07
5.087245242e-07
5.949419035e-07
6.02521119e-07
6.045968582e-07
6.054518548e-07
6.0588494e-07
6.061341383e-07
6.062905372e-07
6.06395087e-07
6.064684148e-07
6.065218347e-07
6.06561539e-07
6.065893407e-07
6.066300486e-07
5.087449752e-07
5.949446508e-07
6.025220474e-07
6.045973167e-07
6.054521236e-07
6.058851143e-07
6.061342592e-07
6.062906252e-07
6.063951533e-07
6.064684616e-07
6.065218541e-07
6.065619553e-07
6.065924948e-07
6.066140525e-07
6.06647767e-07
5.087660885e-07
5.949475109e-07
6.025230067e-07
6.045977902e-07
6.054524011e-07
6.058852943e-07
6.06134384e-07
6.06290716e-07
6.063952219e-07
6.064685147e-07
6.065218924e-07
6.06561971e-07
6.065928407e-07
6.066168237e-07
6.06633849e-07
6.066621653e-07
5.087878842e-07
5.949504918e-07
6.025239977e-07
6.045982793e-07
6.054526878e-07
6.058854802e-07
6.061345129e-07
6.062908097e-07
6.063952925e-07
6.064685697e-07
6.065219359e-07
6.06562003e-07
6.065928525e-07
6.066171387e-07
6.066362914e-07
6.066500117e-07
6.066740245e-07
5.088103828e-07
5.949535963e-07
6.025250218e-07
6.045987844e-07
6.054529838e-07
6.058856721e-07
6.06134646e-07
6.062909065e-07
6.063953655e-07
6.064686261e-07
6.065219811e-07
6.065620392e-07
6.065928791e-07
6.066171298e-07
6.066365564e-07
6.066521145e-07
6.066632957e-07
6.066839083e-07
5.088336056e-07
5.949568264e-07
6.025260798e-07
6.045993061e-07
6.054532896e-07
6.058858704e-07
6.061347835e-07
6.062910065e-07
6.063954408e-07
6.064686845e-07
6.065220271e-07
6.065620771e-07
6.065929097e-07
6.066171521e-07
6.066365595e-07
6.066523436e-07
6.066651491e-07
6.06674368e-07
6.066922322e-07
5.088575747e-07
5.949601868e-07
6.025271729e-07
6.045998448e-07
6.054536054e-07
6.058860752e-07
6.061349255e-07
6.062911098e-07
6.063955187e-07
6.064687448e-07
6.065220749e-07
6.065621152e-07
6.06592942e-07
6.066171785e-07
6.066365791e-07
6.066523515e-07
6.066653536e-07
6.066760161e-07
6.066836935e-07
6.06699308e-07
5.088823131e-07
5.949636823e-07
6.025283024e-07
6.046004012e-07
6.054539314e-07
6.058862866e-07
6.061350721e-07
6.062912165e-07
6.063955991e-07
6.064688072e-07
6.065221243e-07
6.06562155e-07
6.06592974e-07
6.066172065e-07
6.066366019e-07
6.066523691e-07
6.066653606e-07
6.06676198e-07
6.066851693e-07
6.066916211e-07
6.067053735e-07
5.089078454e-07
5.949673168e-07
6.025294694e-07
6.046009757e-07
6.054542682e-07
6.05886505e-07
6.061352236e-07
6.062913267e-07
6.063956822e-07
6.064688716e-07
6.065221753e-07
6.065621962e-07
6.065930077e-07
6.066172337e-07
6.066366265e-07
6.066523893e-07
6.066653762e-07
6.066762043e-07
6.066853319e-07
6.066929507e-07
6.066984169e-07
6.06710612e-07
5.089341976e-07
5.949710929e-07
6.02530675e-07
6.046015689e-07
6.054546159e-07
6.058867305e-07
6.0613538e-07
6.062914404e-07
6.06395768e-07
6.064689381e-07
6.06522228e-07
6.065622387e-07
6.065930426e-07
6.066172626e-07
6.066366499e-07
6.066524111e-07
6.066653939e-07
6.066762182e-07
6.066853376e-07
6.066930971e-07
6.066996215e-07
6.067042863e-07
6.067151679e-07
5.089613976e-07
5.949750114e-07
6.025319205e-07
6.046021815e-07
6.054549749e-07
6.058869634e-07
6.061355415e-07
6.062915579e-07
6.063958566e-07
6.064690068e-07
6.065222825e-07
6.065622827e-07
6.065930786e-07
6.066172923e-07
6.066366749e-07
6.066524312e-07
6.066654126e-07
6.066762341e-07
6.0668535e-07
6.066931022e-07
6.066997539e-07
6.067053834e-07
6.067093904e-07
6.067191011e-07
5.089894759e-07
5.949790707e-07
6.025332071e-07
6.04602814e-07
6.054553456e-07
6.058872038e-07
6.061357082e-07
6.062916793e-07
6.063959481e-07
6.064690777e-07
6.065223387e-07
6.065623281e-07
6.065931158e-07
6.066173232e-07
6.066367006e-07
6.066524528e-07
6.066654309e-07
6.06676251e-07
6.066853643e-07
6.066931133e-07
6.066997585e-07
6.067055037e-07
6.067103942e-07
6.067138523e-07
6.067225425e-07
5.090184662e-07
5.949832658e-07
6.025345358e-07
6.046034672e-07
6.054557284e-07
6.058874521e-07
6.061358804e-07
6.062918045e-07
6.063960425e-07
6.064691509e-07
6.065223968e-07
6.06562375e-07
6.065931542e-07
6.066173551e-07
6.066367273e-07
6.066524753e-07
6.0666545e-07
6.066762673e-07
6.06685379e-07
6.066931262e-07
6.066997685e-07
6.067055079e-07
6.06710504e-07
6.067147785e-07
6.067177709e-07
6.067225375e-07
5.090484057e-07
5.949875877e-07
6.025359079e-07
6.046041416e-07
6.054561237e-07
6.058877084e-07
6.061360582e-07
6.062919339e-07
6.063961401e-07
6.064692266e-07
6.065224567e-07
6.065624234e-07
6.065931939e-07
6.06617388e-07
6.06636755e-07
6.066524987e-07
6.0666547e-07
6.066762838e-07
6.066853938e-07
6.066931389e-07
6.066997801e-07
6.06705517e-07
6.067105078e-07
6.067148796e-07
6.067186304e-07
6.067177701e-07
6.067190961e-07
5.090793363e-07
5.949920223e-07
6.025373244e-07
6.046048379e-07
6.054565317e-07
6.058879731e-07
6.061362418e-07
6.062920675e-07
6.063962408e-07
6.064693047e-07
6.065225187e-07
6.065624734e-07
6.065932349e-07
6.066174221e-07
6.066367835e-07
6.066525229e-07
6.066654907e-07
6.066763015e-07
6.066854087e-07
6.066931524e-07
6.066997919e-07
6.067055274e-07
6.067105161e-07
6.067148832e-07
6.067187241e-07
6.067186303e-07
6.067138515e-07
6.067151682e-07
5.091113055e-07
5.949965493e-07
6.025387861e-07
6.046055569e-07
6.054569531e-07
6.058882464e-07
6.061364314e-07
6.062922054e-07
6.063963448e-07
6.064693853e-07
6.065225826e-07
6.06562525e-07
6.065932772e-07
6.066174572e-07
6.06636813e-07
6.066525479e-07
6.06665512e-07
6.066763199e-07
6.066854246e-07
6.066931662e-07
6.066998043e-07
6.067055381e-07
6.067105256e-07
6.067148908e-07
6.067187275e-07
6.06718724e-07
6.067147784e-07
6.067093901e-07
6.067106125e-07
5.091443676e-07
5.95001141e-07
6.02540294e-07
6.046062993e-07
6.054573882e-07
6.058885285e-07
6.061366271e-07
6.062923478e-07
6.063964522e-07
6.064694686e-07
6.065226486e-07
6.065625783e-07
6.065933209e-07
6.066174935e-07
6.066368435e-07
6.066525737e-07
6.066655341e-07
6.066763389e-07
6.06685441e-07
6.066931805e-07
6.066998164e-07
6.067055491e-07
6.067105354e-07
6.067148995e-07
6.067187345e-07
6.067187275e-07
6.067148796e-07
6.067103942e-07
6.067042861e-07
6.06705374e-07
5.091785847e-07
5.950057605e-07
6.025418487e-07
6.046070659e-07
6.054578374e-07
6.058888199e-07
6.061368292e-07
6.062924949e-07
6.063965631e-07
6.064695546e-07
6.065227168e-07
6.065626334e-07
6.06593366e-07
6.066175309e-07
6.066368749e-07
6.066526004e-07
6.066655569e-07
6.066763585e-07
6.06685458e-07
6.066931953e-07
6.066998293e-07
6.067055605e-07
6.067105455e-07
6.067149085e-07
6.067187424e-07
6.067187345e-07
6.067148832e-07
6.06710504e-07
6.067053834e-07
6.066984167e-07
6.066993086e-07
5.092140284e-07
5.95010361e-07
6.025434506e-07
6.046078576e-07
6.054583013e-07
6.058891207e-07
6.061370378e-07
6.062926467e-07
6.063966776e-07
6.064696434e-07
6.065227872e-07
6.065626902e-07
6.065934126e-07
6.066175696e-07
6.066369074e-07
6.066526279e-07
6.066655804e-07
6.066763787e-07
6.066854755e-07
6.066932106e-07
6.066998427e-07
6.067055723e-07
6.067105559e-07
6.067149177e-07
6.067187507e-07
6.067187424e-07
6.067148908e-07
6.067105078e-07
6.067055037e-07
6.066996215e-07
6.06691621e-07
6.066922327e-07
5.092507809e-07
5.950148834e-07
6.025451e-07
6.046086751e-07
6.054587804e-07
6.058894314e-07
6.061372533e-07
6.062928034e-07
6.063967958e-07
6.064697351e-07
6.065228599e-07
6.065627489e-07
6.065934607e-07
6.066176096e-07
6.06636941e-07
6.066526563e-07
6.066656047e-07
6.066763996e-07
6.066854937e-07
6.066932264e-07
6.066998566e-07
6.067055844e-07
6.067105666e-07
6.067149273e-07
6.067187592e-07
6.067187507e-07
6.067148995e-07
6.067105161e-07
6.067055079e-07
6.066997539e-07
6.066929507e-07
6.066836934e-07
6.066839089e-07
5.092889421e-07
5.950192561e-07
6.025467965e-07
6.046095195e-07
6.054592753e-07
6.058897522e-07
6.061374758e-07
6.062929653e-07
6.063969179e-07
6.064698297e-07
6.06522935e-07
6.065628095e-07
6.065935104e-07
6.066176508e-07
6.066369756e-07
6.066526857e-07
6.066656298e-07
6.066764212e-07
6.066855124e-07
6.066932427e-07
6.066998709e-07
6.06705597e-07
6.067105778e-07
6.067149371e-07
6.06718768e-07
6.067187592e-07
6.067149085e-07
6.067105256e-07
6.06705517e-07
6.066997585e-07
6.066930971e-07
6.066851693e-07
6.066743679e-07
6.066740252e-07
5.09328588e-07
5.950233776e-07
6.025485398e-07
6.046103917e-07
6.054597864e-07
6.058900836e-07
6.061377055e-07
6.062931324e-07
6.06397044e-07
6.064699275e-07
6.065230125e-07
6.065628721e-07
6.065935617e-07
6.066176934e-07
6.066370114e-07
6.06652716e-07
6.066656557e-07
6.066764435e-07
6.066855317e-07
6.066932595e-07
6.066998856e-07
6.0670561e-07
6.067105893e-07
6.067149473e-07
6.067187771e-07
6.06718768e-07
6.067149177e-07
6.067105354e-07
6.067055273e-07
6.066997685e-07
6.066931022e-07
6.066853319e-07
6.066760161e-07
6.066632956e-07
6.06662166e-07
5.093691512e-07
5.950272749e-07
6.025503294e-07
6.046112928e-07
6.054603146e-07
6.058904259e-07
6.061379428e-07
6.06293305e-07
6.063971741e-07
6.064700284e-07
6.065230925e-07
6.065629367e-07
6.065936147e-07
6.066177374e-07
6.066370483e-07
6.066527473e-07
6.066656824e-07
6.066764666e-07
6.066855517e-07
6.066932769e-07
6.066999009e-07
6.067056234e-07
6.067106011e-07
6.067149579e-07
6.067187865e-07
6.067187771e-07
6.067149273e-07
6.067105455e-07
6.06705538e-07
6.066997799e-07
6.066931132e-07
6.066853376e-07
6.06676198e-07
6.066651491e-07
6.06650012e-07
6.066477677e-07
5.094108597e-07
5.950332738e-07
6.025521659e-07
6.046122239e-07
6.054608603e-07
6.058907796e-07
6.06138188e-07
6.062934833e-07
6.063973085e-07
6.064701326e-07
6.065231751e-07
6.065630034e-07
6.065936694e-07
6.066177829e-07
6.066370864e-07
6.066527796e-07
6.066657101e-07
6.066764903e-07
6.066855723e-07
6.066932949e-07
6.066999166e-07
6.067056373e-07
6.067106134e-07
6.067149687e-07
6.067187962e-07
6.067187865e-07
6.067149371e-07
6.067105559e-07
6.067055491e-07
6.066997917e-07
6.066931258e-07
6.066853499e-07
6.066762043e-07
6.066653536e-07
6.066521144e-07
6.066338503e-07
6.066300493e-07
5.094539667e-07
5.950409907e-07
6.025541051e-07
6.046131862e-07
6.054614245e-07
6.05891145e-07
6.061384412e-07
6.062936675e-07
6.063974473e-07
6.064702402e-07
6.065232604e-07
6.065630723e-07
6.065937259e-07
6.066178298e-07
6.066371258e-07
6.06652813e-07
6.066657386e-07
6.066765149e-07
6.066855936e-07
6.066933134e-07
6.066999329e-07
6.067056516e-07
6.06710626e-07
6.0671498e-07
6.067188062e-07
6.067187962e-07
6.067149473e-07
6.067105667e-07
6.067055605e-07
6.066998038e-07
6.066931388e-07
6.066853638e-07
6.06676218e-07
6.066653607e-07
6.066523436e-07
6.066362913e-07
6.066140505e-07
6.066079057e-07
5.094985667e-07
5.950496447e-07
6.02556144e-07
6.046141843e-07
6.054620079e-07
6.058915229e-07
6.061387029e-07
6.062938577e-07
6.063975907e-07
6.064703513e-07
6.065233485e-07
6.065631434e-07
6.065937842e-07
6.066178782e-07
6.066371665e-07
6.066528475e-07
6.06665768e-07
6.066765403e-07
6.066856155e-07
6.066933326e-07
6.066999497e-07
6.067056664e-07
6.067106391e-07
6.067149916e-07
6.067188165e-07
6.067188062e-07
6.067149579e-07
6.067105778e-07
6.067055723e-07
6.066998164e-07
6.066931523e-07
6.066853783e-07
6.066762336e-07
6.066653761e-07
6.066523514e-07
6.066365545e-07
6.066168237e-07
6.065893393e-07
6.065797317e-07
5.095446928e-07
5.950591505e-07
6.025582632e-07
6.046152204e-07
6.054626122e-07
6.058919135e-07
6.061389734e-07
6.062940542e-07
6.063977388e-07
6.064704661e-07
6.065234395e-07
6.065632169e-07
6.065938444e-07
6.066179282e-07
6.066372085e-07
6.066528831e-07
6.066657984e-07
6.066765665e-07
6.066856382e-07
6.066933524e-07
6.06699967e-07
6.067056817e-07
6.067106526e-07
6.067150035e-07
6.067188272e-07
6.067188165e-07
6.067149688e-07
6.067105893e-07
6.067055845e-07
6.066998294e-07
6.066931662e-07
6.066853932e-07
6.066762498e-07
6.066653937e-07
6.066523689e-07
6.066365593e-07
6.066171366e-07
6.065924941e-07
6.065578069e-07
6.065431215e-07
5.095925292e-07
5.950698364e-07
6.025604572e-07
6.046162948e-07
6.054632393e-07
6.05892318e-07
6.061392531e-07
6.062942574e-07
6.063978918e-07
6.064705847e-07
6.065235335e-07
6.065632927e-07
6.065939066e-07
6.066179798e-07
6.066372518e-07
6.066529198e-07
6.066658299e-07
6.066765935e-07
6.066856617e-07
6.066933728e-07
6.066999849e-07
6.067056974e-07
6.067106665e-07
6.067150159e-07
6.067188382e-07
6.067188272e-07
6.0671498e-07
6.067106012e-07
6.067055971e-07
6.066998428e-07
6.066931805e-07
6.066854087e-07
6.066762665e-07
6.066654119e-07
6.066523888e-07
6.06636579e-07
6.066171296e-07
6.065928409e-07
6.065615392e-07
6.065167986e-07
6.06494338e-07
5.096420633e-07
5.9508118e-07
6.025627307e-07
6.046174096e-07
6.054638897e-07
6.058927379e-07
6.061395425e-07
6.062944674e-07
6.063980499e-07
6.064707072e-07
6.065236305e-07
6.065633711e-07
6.065939708e-07
6.066180331e-07
6.066372966e-07
6.066529577e-07
6.066658623e-07
6.066766214e-07
6.066856859e-07
6.066933939e-07
6.067000034e-07
6.067057137e-07
6.067106809e-07
6.067150287e-07
6.067188496e-07
6.067188382e-07
6.067149916e-07
6.067106134e-07
6.067056101e-07
6.066998566e-07
6.066931953e-07
6.066854246e-07
6.066762837e-07
6.066654306e-07
6.066524094e-07
6.066366018e-07
6.06617152e-07
6.065928525e-07
6.065619555e-07
6.065213291e-07
6.064621374e-07
6.064273246e-07
5.096934368e-07
5.950936106e-07
6.025650977e-07
6.046185672e-07
6.054645644e-07
6.058931732e-07
6.06139843e-07
6.062946847e-07
6.063982134e-07
6.064708337e-07
6.065237308e-07
6.06563452e-07
6.065940371e-07
6.066180882e-07
6.066373428e-07
6.066529969e-07
6.066658958e-07
6.066766502e-07
6.066857108e-07
6.066934157e-07
6.067000225e-07
6.067057305e-07
6.067106958e-07
6.067150419e-07
6.067188614e-07
6.067188496e-07
6.067150036e-07
6.067106261e-07
6.067056235e-07
6.066998709e-07
6.066932106e-07
6.06685441e-07
6.066763015e-07
6.0666545e-07
6.066524307e-07
6.066366253e-07
6.066171783e-07
6.06592879e-07
6.06561971e-07
6.065218348e-07
6.064677673e-07
6.063872016e-07
6.063317201e-07
5.097466778e-07
5.951067754e-07
6.025675567e-07
6.046197703e-07
6.054652651e-07
6.05893625e-07
6.061401547e-07
6.062949101e-07
6.063983824e-07
6.064709646e-07
6.065238344e-07
6.065635356e-07
6.065941055e-07
6.06618145e-07
6.066373905e-07
6.066530374e-07
6.066659303e-07
6.0667668e-07
6.066857366e-07
6.066934382e-07
6.067000422e-07
6.067057479e-07
6.067107111e-07
6.067150555e-07
6.067188735e-07
6.067188614e-07
6.06715016e-07
6.067106392e-07
6.067056374e-07
6.066998857e-07
6.066932264e-07
6.06685458e-07
6.066763199e-07
6.0666547e-07
6.066524527e-07
6.066366496e-07
6.066172055e-07
6.065929096e-07
6.065620029e-07
6.065218541e-07
6.064683913e-07
6.063942232e-07
6.062803624e-07
6.061886629e-07
5.098018855e-07
5.951214338e-07
6.025701163e-07
6.04621022e-07
6.054659933e-07
6.058940941e-07
6.06140478e-07
6.062951441e-07
6.063985577e-07
6.064710998e-07
6.065239414e-07
6.065636219e-07
6.065941763e-07
6.066182037e-07
6.066374398e-07
6.066530791e-07
6.06665966e-07
6.066767108e-07
6.066857633e-07
6.066934614e-07
6.067000625e-07
6.067057658e-07
6.06710727e-07
6.067150696e-07
6.067188861e-07
6.067188736e-07
6.067150288e-07
6.067106527e-07
6.067056517e-07
6.06699901e-07
6.066932427e-07
6.066854756e-07
6.066763389e-07
6.066654907e-07
6.066524754e-07
6.066366747e-07
6.066172335e-07
6.065929413e-07
6.065620391e-07
6.065218924e-07
6.064684148e-07
6.063949998e-07
6.062894188e-07
6.061205099e-07
6.059605259e-07
5.098595226e-07
5.951356512e-07
6.025727868e-07
6.046223253e-07
6.054667508e-07
6.058945815e-07
6.061408138e-07
6.062953868e-07
6.063987397e-07
6.064712398e-07
6.06524052e-07
6.065637111e-07
6.065942494e-07
6.066182644e-07
6.066374907e-07
6.066531223e-07
6.066660029e-07
6.066767425e-07
6.066857908e-07
6.066934854e-07
6.067000835e-07
6.067057843e-07
6.067107434e-07
6.067150841e-07
6.06718899e-07
6.067188862e-07
6.067150421e-07
6.067106667e-07
6.067056665e-07
6.066999167e-07
6.066932596e-07
6.066854937e-07
6.066763585e-07
6.066655121e-07
6.066524988e-07
6.066367006e-07
6.066172625e-07
6.06592974e-07
6.065620765e-07
6.065219358e-07
6.064684616e-07
6.063950293e-07
6.062903458e-07
6.061325688e-07
6.058657568e-07
6.055641809e-07
5.099213484e-07
5.951556751e-07
6.025755916e-07
6.046236837e-07
6.054675396e-07
6.058950886e-07
6.061411626e-07
6.062956388e-07
6.063989285e-07
6.064713853e-07
6.065241666e-07
6.065638033e-07
6.065943248e-07
6.06618327e-07
6.066375432e-07
6.066531668e-07
6.06666041e-07
6.066767753e-07
6.066858192e-07
6.066935101e-07
6.067001052e-07
6.067058034e-07
6.067107603e-07
6.067150991e-07
6.067189124e-07
6.067188991e-07
6.067150557e-07
6.067106811e-07
6.067056818e-07
6.06699933e-07
6.06693277e-07
6.066855125e-07
6.066763788e-07
6.066655342e-07
6.06652523e-07
6.066367274e-07
6.066172924e-07
6.065930077e-07
6.065621152e-07
6.065219807e-07
6.064685147e-07
6.06395087e-07
6.062903773e-07
6.06133766e-07
6.058825473e-07
6.054228583e-07
6.047803068e-07
5.099834343e-07
5.951646566e-07
6.025785952e-07
6.04625101e-07
6.054683615e-07
6.058956165e-07
6.061415254e-07
6.062959006e-07
6.063991245e-07
6.064715364e-07
6.065242853e-07
6.065638986e-07
6.065944029e-07
6.066183917e-07
6.066375975e-07
6.066532128e-07
6.066660803e-07
6.066768091e-07
6.066858485e-07
6.066935357e-07
6.067001276e-07
6.067058231e-07
6.067107777e-07
6.067151146e-07
6.067189262e-07
6.067189125e-07
6.067150698e-07
6.06710696e-07
6.067056976e-07
6.066999498e-07
6.06693295e-07
6.066855318e-07
6.066763998e-07
6.06665557e-07
6.06652548e-07
6.066367551e-07
6.066173233e-07
6.065930426e-07
6.065621551e-07
6.065220271e-07
6.064685695e-07
6.063951533e-07
6.062904521e-07
6.061338079e-07
6.058842475e-07
6.054479513e-07
6.045483493e-07
6.028819335e-07
5.101672178e-07
5.95195319e-07
6.025815519e-07
6.046265812e-07
6.05469219e-07
6.058961665e-07
6.061419031e-07
6.062961728e-07
6.063993281e-07
6.06471693e-07
6.065244088e-07
6.065639974e-07
6.065944833e-07
6.066184586e-07
6.066376536e-07
6.066532603e-07
6.066661209e-07
6.066768441e-07
6.066858788e-07
6.066935621e-07
6.067001508e-07
6.067058435e-07
6.067107957e-07
6.067151306e-07
6.067189405e-07
6.067189264e-07
6.067150844e-07
6.067107114e-07
6.067057139e-07
6.066999672e-07
6.066933136e-07
6.066855518e-07
6.066764214e-07
6.066655805e-07
6.066525739e-07
6.066367837e-07
6.066173552e-07
6.065930787e-07
6.065621963e-07
6.065220749e-07
6.064686261e-07
6.063952218e-07
6.062905373e-07
6.061339079e-07
6.058843096e-07
6.054505563e-07
6.045898496e-07
6.024247949e-07
5.960151944e-07
5.064710863e-07
5.952001849e-07
6.025850288e-07
6.046281301e-07
6.054701139e-07
6.058967402e-07
6.061422965e-07
6.062964561e-07
6.063995397e-07
6.064718558e-07
6.065245369e-07
6.065641001e-07
6.065945669e-07
6.066185276e-07
6.066377115e-07
6.066533094e-07
6.066661628e-07
6.066768801e-07
6.066859101e-07
6.066935894e-07
6.067001747e-07
6.067058645e-07
6.067108143e-07
6.067151471e-07
6.067189552e-07
6.067189407e-07
6.067150995e-07
6.067107273e-07
6.067057308e-07
6.066999852e-07
6.066933328e-07
6.066855725e-07
6.066764437e-07
6.066656049e-07
6.066526006e-07
6.066368132e-07
6.066173882e-07
6.065931159e-07
6.065622389e-07
6.065221244e-07
6.064686846e-07
6.063952925e-07
6.062906253e-07
6.061340217e-07
6.058844497e-07
6.054506535e-07
6.045942686e-07
6.025064336e-07
5.946799973e-07
5.162549306e-07
5.948734975e-07
5.690458324e-07
6.025912891e-07
6.046297354e-07
6.054710502e-07
6.058973385e-07
6.061427067e-07
6.062967511e-07
6.063997598e-07
6.064720249e-07
6.065246698e-07
6.065642067e-07
6.065946535e-07
6.06618599e-07
6.066377714e-07
6.0665336e-07
6.066662061e-07
6.066769174e-07
6.066859424e-07
6.066936175e-07
6.067001993e-07
6.067058862e-07
6.067108335e-07
6.067151642e-07
6.067189704e-07
6.067189555e-07
6.067151151e-07
6.067107437e-07
6.067057482e-07
6.067000037e-07
6.066933527e-07
6.066855939e-07
6.066764668e-07
6.0666563e-07
6.066526282e-07
6.066368437e-07
6.066174222e-07
6.065931544e-07
6.065622829e-07
6.065221755e-07
6.06468745e-07
6.063953656e-07
6.062907161e-07
6.061341385e-07
6.058846084e-07
6.054508624e-07
6.045944309e-07
6.02515161e-07
5.949139169e-07
5.065670212e-07
6.025148329e-07
6.011769403e-07
5.260214548e-07
5.966739707e-07
6.046326373e-07
6.054720276e-07
6.058979648e-07
6.061431342e-07
6.062970587e-07
6.06399989e-07
6.064722007e-07
6.06524808e-07
6.065643173e-07
6.065947434e-07
6.06618673e-07
6.066378331e-07
6.066534124e-07
6.066662508e-07
6.066769559e-07
6.066859757e-07
6.066936466e-07
6.067002248e-07
6.067059087e-07
6.067108533e-07
6.067151818e-07
6.067189861e-07
6.067189707e-07
6.067151312e-07
6.067107607e-07
6.067057662e-07
6.067000229e-07
6.066933732e-07
6.066856159e-07
6.066764907e-07
6.06665656e-07
6.066526566e-07
6.066368752e-07
6.066174574e-07
6.065931941e-07
6.065623283e-07
6.065222282e-07
6.064688074e-07
6.06395441e-07
6.062908099e-07
6.061342595e-07
6.058847718e-07
6.054510992e-07
6.04594775e-07
6.025154774e-07
5.94925133e-07
5.083684481e-07
6.046053706e-07
6.039052131e-07
6.037923163e-07
5.083359549e-07
5.972819601e-07
6.038511348e-07
6.054736622e-07
6.058986248e-07
6.061435822e-07
6.06297379e-07
6.064002279e-07
6.064723837e-07
6.065249515e-07
6.065644321e-07
6.065948369e-07
6.066187498e-07
6.066378971e-07
6.066534665e-07
6.066662969e-07
6.066769956e-07
6.066860101e-07
6.066936766e-07
6.067002511e-07
6.067059318e-07
6.067108738e-07
6.067152e-07
6.067190023e-07
6.067189865e-07
6.067151478e-07
6.067107783e-07
6.067057848e-07
6.067000427e-07
6.066933944e-07
6.066856387e-07
6.066765153e-07
6.066656828e-07
6.066526861e-07
6.066369078e-07
6.066174938e-07
6.065932352e-07
6.065623752e-07
6.065222827e-07
6.064688718e-07
6.06395519e-07
6.062909068e-07
6.061343842e-07
6.058849405e-07
6.054513442e-07
6.045951658e-07
6.025161416e-07
5.949249944e-07
5.085615257e-07
6.054625695e-07
6.051552035e-07
6.049659582e-07
6.049666168e-07
5.04945213e-07
5.972497592e-07
6.028650387e-07
6.051561123e-07
6.058996605e-07
6.061440588e-07
6.06297715e-07
6.064004766e-07
6.064725743e-07
6.065251009e-07
6.065645515e-07
6.065949339e-07
6.066188297e-07
6.066379635e-07
6.066535223e-07
6.066663446e-07
6.066770366e-07
6.066860456e-07
6.066937075e-07
6.067002782e-07
6.067059557e-07
6.067108949e-07
6.067152187e-07
6.067190191e-07
6.067190028e-07
6.067151649e-07
6.067107964e-07
6.067058041e-07
6.067000632e-07
6.066934163e-07
6.066856622e-07
6.066765408e-07
6.066657106e-07
6.066527165e-07
6.066369414e-07
6.066175314e-07
6.065932776e-07
6.065624237e-07
6.06522339e-07
6.064689384e-07
6.063955995e-07
6.062910068e-07
6.061345132e-07
6.058851146e-07
6.054515953e-07
6.045955701e-07
6.02516904e-07
5.949257695e-07
5.085683804e-07
6.058951469e-07
6.057291404e-07
6.056241142e-07
6.055837207e-07
6.055712725e-07
5.040727917e-07
5.968491077e-07
6.024427511e-07
6.045957132e-07
6.055907949e-07
6.061447838e-07
6.06298075e-07
6.064007374e-07
6.064727729e-07
6.065252564e-07
6.065646756e-07
6.065950346e-07
6.066189126e-07
6.066380324e-07
6.066535801e-07
6.066663939e-07
6.06677079e-07
6.066860823e-07
6.066937395e-07
6.067003062e-07
6.067059804e-07
6.067109168e-07
6.067152381e-07
6.067190364e-07
6.067190196e-07
6.067151827e-07
6.067108151e-07
6.067058239e-07
6.067000843e-07
6.066934389e-07
6.066856866e-07
6.066765671e-07
6.066657392e-07
6.066527479e-07
6.066369762e-07
6.066175702e-07
6.065933214e-07
6.065624738e-07
6.065223972e-07
6.064690072e-07
6.063956826e-07
6.062911102e-07
6.061346464e-07
6.058852947e-07
6.054518553e-07
6.045959853e-07
6.025176917e-07
5.949275134e-07
5.085824126e-07
6.061433815e-07
6.060429641e-07
6.059738795e-07
6.059376999e-07
6.059182581e-07
6.059087794e-07
5.029205897e-07
5.964462044e-07
6.022989796e-07
6.043686124e-07
6.05352668e-07
6.058916502e-07
6.062986418e-07
6.064010169e-07
6.064729807e-07
6.065254184e-07
6.065648049e-07
6.065951393e-07
6.066189987e-07
6.06638104e-07
6.066536401e-07
6.066664447e-07
6.066771227e-07
6.066861202e-07
6.066937725e-07
6.067003352e-07
6.067060058e-07
6.067109393e-07
6.067152581e-07
6.067190542e-07
6.06719037e-07
6.06715201e-07
6.067108345e-07
6.067058444e-07
6.067001062e-07
6.066934623e-07
6.066857117e-07
6.066765943e-07
6.066657688e-07
6.066527804e-07
6.066370121e-07
6.066176102e-07
6.065933666e-07
6.065625256e-07
6.065224573e-07
6.064690782e-07
6.063957685e-07
6.06291217e-07
6.06134784e-07
6.058854807e-07
6.054521242e-07
6.045964148e-07
6.025184973e-07
5.94929568e-07
5.085983157e-07
6.062987444e-07
6.062325267e-07
6.061837671e-07
6.061532513e-07
6.061325322e-07
6.061175532e-07
6.061072976e-07
5.01631105e-07
5.960590077e-07
6.022090161e-07
6.043048198e-07
6.052476828e-07
6.057705134e-07
6.060953749e-07
6.064014979e-07
6.064732034e-07
6.065255879e-07
6.065649392e-07
6.065952483e-07
6.066190881e-07
6.066381783e-07
6.066537024e-07
6.066664973e-07
6.066771679e-07
6.066861593e-07
6.066938066e-07
6.06700365e-07
6.067060321e-07
6.067109625e-07
6.067152787e-07
6.067190726e-07
6.067190549e-07
6.0671522e-07
6.067108545e-07
6.067058657e-07
6.067001288e-07
6.066934864e-07
6.066857377e-07
6.066766224e-07
6.066657994e-07
6.066528139e-07
6.066370492e-07
6.066176517e-07
6.065934134e-07
6.06562579e-07
6.065225194e-07
6.064691516e-07
6.063958573e-07
6.062913274e-07
6.061349262e-07
6.058856729e-07
6.054524019e-07
6.04596859e-07
6.025193474e-07
5.94931839e-07
5.086147034e-07
6.064021778e-07
6.063557116e-07
6.063193738e-07
6.062947176e-07
6.06276756e-07
6.06259143e-07
6.062458879e-07
6.06236981e-07
5.003729715e-07
5.956910287e-07
6.021270661e-07
6.042746272e-07
6.052159572e-07
6.057091207e-07
6.060286627e-07
6.062321169e-07
6.064735912e-07
6.065257678e-07
6.065650806e-07
6.065953613e-07
6.066191812e-07
6.066382555e-07
6.066537672e-07
6.06666552e-07
6.066772144e-07
6.066861997e-07
6.066938417e-07
6.067003958e-07
6.067060592e-07
6.067109865e-07
6.067153e-07
6.067190916e-07
6.067190734e-07
6.067152395e-07
6.067108752e-07
6.067058876e-07
6.067001521e-07
6.066935114e-07
6.066857645e-07
6.066766514e-07
6.06665831e-07
6.066528486e-07
6.066370875e-07
6.066176945e-07
6.065934617e-07
6.065626343e-07
6.065225835e-07
6.064692275e-07
6.063959489e-07
6.062914413e-07
6.061350731e-07
6.058858714e-07
6.054526889e-07
6.045973178e-07
6.025202172e-07
5.949342107e-07
5.086316022e-07
6.064745863e-07
6.064402397e-07
6.064127325e-07
6.063933095e-07
6.063752239e-07
6.063598233e-07
6.063457385e-07
6.063353042e-07
6.063293108e-07
4.991669373e-07
5.953493262e-07
6.020613888e-07
6.042508327e-07
6.052099226e-07
6.056889351e-07
6.059817883e-07
6.061874171e-07
6.063386058e-07
6.065260825e-07
6.065652295e-07
6.065954815e-07
6.066192775e-07
6.066383358e-07
6.066538344e-07
6.066666088e-07
6.066772627e-07
6.066862414e-07
6.06693878e-07
6.067004276e-07
6.067060872e-07
6.067110113e-07
6.06715322e-07
6.067191112e-07
6.067190926e-07
6.067152598e-07
6.067108965e-07
6.067059102e-07
6.067001762e-07
6.066935372e-07
6.066857923e-07
6.066766814e-07
6.066658637e-07
6.066528844e-07
6.066371271e-07
6.066177387e-07
6.065935116e-07
6.065626914e-07
6.065226498e-07
6.064693058e-07
6.063960437e-07
6.062915591e-07
6.061352248e-07
6.058860765e-07
6.054529853e-07
6.045977918e-07
6.025211153e-07
5.949366669e-07
5.086490417e-07
6.065269908e-07
6.065011144e-07
6.064805167e-07
6.064623927e-07
6.064471833e-07
6.064323682e-07
6.064196118e-07
6.06408923e-07
6.06401856e-07
6.063953826e-07
4.980098042e-07
5.950415412e-07
6.020154987e-07
6.042561671e-07
6.05185063e-07
6.05669748e-07
6.059581221e-07
6.06150503e-07
6.063157755e-07
6.064351473e-07
6.065655012e-07
6.065956071e-07
6.066193807e-07
6.066384188e-07
6.066539044e-07
6.066666677e-07
6.066773128e-07
6.066862843e-07
6.066939155e-07
6.067004604e-07
6.067061161e-07
6.067110368e-07
6.067153447e-07
6.067191315e-07
6.067191123e-07
6.067152807e-07
6.067109186e-07
6.067059336e-07
6.067002011e-07
6.066935639e-07
6.06685821e-07
6.066767125e-07
6.066658974e-07
6.066529214e-07
6.06637168e-07
6.066177844e-07
6.065935632e-07
6.065627503e-07
6.065227182e-07
6.064693867e-07
6.063961415e-07
6.062916807e-07
6.061353815e-07
6.058862883e-07
6.054532915e-07
6.045982814e-07
6.025220429e-07
5.949392138e-07
5.086670558e-07
6.065663405e-07
6.065462825e-07
6.065292745e-07
6.065142559e-07
6.065001881e-07
6.064872046e-07
6.064753096e-07
6.064653314e-07
6.06458904e-07
6.064529778e-07
6.06448247e-07
4.969022036e-07
5.947772764e-07
6.019893794e-07
6.042194758e-07
6.051529255e-07
6.056488771e-07
6.059429387e-07
6.061313741e-07
6.062789175e-07
6.064254908e-07
6.065605596e-07
6.065958488e-07