/*--------------------------------*- C++ -*----------------------------------*\
  =========                 |
  \\      /  F ield         | OpenFOAM: The Open Source CFD Toolbox
   \\    /   O peration     | Website:  https://openfoam.org
    \\  /    A nd           | Version:  dev
     \\/     M anipulation  |
\*---------------------------------------------------------------------------*/
FoamFile
{
    version     2.0;
    format      ascii;
    class       volScalarField;
    location    "0.024";
    object      nuTilda;
}
// * * * * * * * * * * * * * * * * * * * * * * * * * * * * * * * * * * * * * //

dimensions      [0 2 -1 0 0 0 0];

internalField   nonuniform List<scalar> 
197600
(
3.813510895e-06
3.791020917e-06
3.978757233e-06
3.795186102e-06
3.975935972e-06
3.992357576e-06
3.795660468e-06
3.976426254e-06
3.991397925e-06
3.99609931e-06
3.795673891e-06
3.976452823e-06
3.991567589e-06
3.995613581e-06
3.997642587e-06
3.795704012e-06
3.976452375e-06
3.991586921e-06
3.995699639e-06
3.99734687e-06
3.998422273e-06
3.795738879e-06
3.976453732e-06
3.991587481e-06
3.995709414e-06
3.997398852e-06
3.998224099e-06
3.998870968e-06
3.795774806e-06
3.976457246e-06
3.991588768e-06
3.995709697e-06
3.997404613e-06
3.998258851e-06
3.998728482e-06
3.999152247e-06
3.795811845e-06
3.976461292e-06
3.99159028e-06
3.995710363e-06
3.997404782e-06
3.998262616e-06
3.998753429e-06
3.9990449e-06
3.999340205e-06
3.795850076e-06
3.976465772e-06
3.991591843e-06
3.995711135e-06
3.997405186e-06
3.998262721e-06
3.998756078e-06
3.999063636e-06
3.999256346e-06
3.999471937e-06
3.795889547e-06
3.97647048e-06
3.991593457e-06
3.995711933e-06
3.997405653e-06
3.998262992e-06
3.99875615e-06
3.999065676e-06
3.999270862e-06
3.999404614e-06
3.999567825e-06
3.795930299e-06
3.976475375e-06
3.991595125e-06
3.995712756e-06
3.997406136e-06
3.998263305e-06
3.998756343e-06
3.999065729e-06
3.999272574e-06
3.999416276e-06
3.999512793e-06
3.999639782e-06
3.795972376e-06
3.976480458e-06
3.991596849e-06
3.995713606e-06
3.997406634e-06
3.998263628e-06
3.998756567e-06
3.999065874e-06
3.999272625e-06
3.999417654e-06
3.999522177e-06
3.99959395e-06
3.999695154e-06
3.79601582e-06
3.976485736e-06
3.99159863e-06
3.995714484e-06
3.997407148e-06
3.998263961e-06
3.998756798e-06
3.999066042e-06
3.999272737e-06
3.999417696e-06
3.999523294e-06
3.999601675e-06
3.999656353e-06
3.999738672e-06
3.796060671e-06
3.976491222e-06
3.991600471e-06
3.995715391e-06
3.997407679e-06
3.998264305e-06
3.998757037e-06
3.999066216e-06
3.999272868e-06
3.999417786e-06
3.999523328e-06
3.999602595e-06
3.999662876e-06
3.999705244e-06
3.999773493e-06
3.796106973e-06
3.976496931e-06
3.991602372e-06
3.995716327e-06
3.997408227e-06
3.998264661e-06
3.998757283e-06
3.999066395e-06
3.999273004e-06
3.999417891e-06
3.999523402e-06
3.999602623e-06
3.999663641e-06
3.999710974e-06
3.999744407e-06
3.999801787e-06
3.796154769e-06
3.97650288e-06
3.991604337e-06
3.995717294e-06
3.997408794e-06
3.998265028e-06
3.998757538e-06
3.99906658e-06
3.999273143e-06
3.999417999e-06
3.999523488e-06
3.999602685e-06
3.999663661e-06
3.99971167e-06
3.999749459e-06
3.999776392e-06
3.999825092e-06
3.796204104e-06
3.976509084e-06
3.991606366e-06
3.995718293e-06
3.997409379e-06
3.998265407e-06
3.998757801e-06
3.999066771e-06
3.999273287e-06
3.999418111e-06
3.999523577e-06
3.999602756e-06
3.999663712e-06
3.999711644e-06
3.999750046e-06
3.999780738e-06
3.999802675e-06
3.999844514e-06
3.796255025e-06
3.976515541e-06
3.991608464e-06
3.995719325e-06
3.997409983e-06
3.998265799e-06
3.998758072e-06
3.999066968e-06
3.999273436e-06
3.999418226e-06
3.999523668e-06
3.999602831e-06
3.999663773e-06
3.999711687e-06
3.999750045e-06
3.999781243e-06
3.999806504e-06
3.99982458e-06
3.999860871e-06
3.796307579e-06
3.976522258e-06
3.991610631e-06
3.99572039e-06
3.997410606e-06
3.998266203e-06
3.998758353e-06
3.999067172e-06
3.99927359e-06
3.999418345e-06
3.999523762e-06
3.999602906e-06
3.999663836e-06
3.999711739e-06
3.999750083e-06
3.999781256e-06
3.999806954e-06
3.999827985e-06
3.99984303e-06
3.999874775e-06
3.796361818e-06
3.976529245e-06
3.99161287e-06
3.99572149e-06
3.997411251e-06
3.998266621e-06
3.998758642e-06
3.999067383e-06
3.999273748e-06
3.999418468e-06
3.99952386e-06
3.999602985e-06
3.9996639e-06
3.999711794e-06
3.999750128e-06
3.99978129e-06
3.999806967e-06
3.999828386e-06
3.999846079e-06
3.999858714e-06
3.999886693e-06
3.796417794e-06
3.976536509e-06
3.991615183e-06
3.995722626e-06
3.997411916e-06
3.998267052e-06
3.998758941e-06
3.9990676e-06
3.999273912e-06
3.999418595e-06
3.999523961e-06
3.999603066e-06
3.999663966e-06
3.999711848e-06
3.999750176e-06
3.99978133e-06
3.999806997e-06
3.999828397e-06
3.999846438e-06
3.999861461e-06
3.999872158e-06
3.999896987e-06
3.796475565e-06
3.976544056e-06
3.991617573e-06
3.995723799e-06
3.997412603e-06
3.998267497e-06
3.99875925e-06
3.999067825e-06
3.999274082e-06
3.999418726e-06
3.999524065e-06
3.99960315e-06
3.999664035e-06
3.999711905e-06
3.999750223e-06
3.999781373e-06
3.999807032e-06
3.999828424e-06
3.999846448e-06
3.999861784e-06
3.999874648e-06
3.99988377e-06
3.999905939e-06
3.796535191e-06
3.976551888e-06
3.991620043e-06
3.99572501e-06
3.997413312e-06
3.998267957e-06
3.998759569e-06
3.999068057e-06
3.999274257e-06
3.999418862e-06
3.999524172e-06
3.999603237e-06
3.999664106e-06
3.999711964e-06
3.999750272e-06
3.999781413e-06
3.999807069e-06
3.999828456e-06
3.999846472e-06
3.999861793e-06
3.999874939e-06
3.999886037e-06
3.999893867e-06
3.999913661e-06
3.796596739e-06
3.976560001e-06
3.991622593e-06
3.995726261e-06
3.997414044e-06
3.998268432e-06
3.998759898e-06
3.999068296e-06
3.999274437e-06
3.999419002e-06
3.999524283e-06
3.999603326e-06
3.999664179e-06
3.999712025e-06
3.999750323e-06
3.999781455e-06
3.999807105e-06
3.999828489e-06
3.9998465e-06
3.999861814e-06
3.999874947e-06
3.999886302e-06
3.999895942e-06
3.999902693e-06
3.999920415e-06
3.796660283e-06
3.976568385e-06
3.991625228e-06
3.995727552e-06
3.997414801e-06
3.998268922e-06
3.998760238e-06
3.999068544e-06
3.999274624e-06
3.999419147e-06
3.999524398e-06
3.999603419e-06
3.999664255e-06
3.999712088e-06
3.999750376e-06
3.9997815e-06
3.999807143e-06
3.999828521e-06
3.999846529e-06
3.999861839e-06
3.999874967e-06
3.99988631e-06
3.999896184e-06
3.999904608e-06
3.999910443e-06
3.999920405e-06
3.796725903e-06
3.976577022e-06
3.991627948e-06
3.995728886e-06
3.997415581e-06
3.998269428e-06
3.998760589e-06
3.999068799e-06
3.999274816e-06
3.999419296e-06
3.999524516e-06
3.999603514e-06
3.999664333e-06
3.999712153e-06
3.99975043e-06
3.999781546e-06
3.999807182e-06
3.999828554e-06
3.999846558e-06
3.999861865e-06
3.99987499e-06
3.999886327e-06
3.999896191e-06
3.999904831e-06
3.999912222e-06
3.999910442e-06
3.999913651e-06
3.796793692e-06
3.976585886e-06
3.991630756e-06
3.995730263e-06
3.997416387e-06
3.998269951e-06
3.998760951e-06
3.999069063e-06
3.999275015e-06
3.99941945e-06
3.999524638e-06
3.999603613e-06
3.999664414e-06
3.99971222e-06
3.999750486e-06
3.999781594e-06
3.999807223e-06
3.999828589e-06
3.999846587e-06
3.999861891e-06
3.999875013e-06
3.999886348e-06
3.999896207e-06
3.999904838e-06
3.999912428e-06
3.999912221e-06
3.999902691e-06
3.99990594e-06
3.796863754e-06
3.976594934e-06
3.991633653e-06
3.995731684e-06
3.99741722e-06
3.99827049e-06
3.998761325e-06
3.999069335e-06
3.99927522e-06
3.999419609e-06
3.999524764e-06
3.999603715e-06
3.999664498e-06
3.999712289e-06
3.999750545e-06
3.999781643e-06
3.999807265e-06
3.999828625e-06
3.999846619e-06
3.999861918e-06
3.999875037e-06
3.999886369e-06
3.999896226e-06
3.999904852e-06
3.999912434e-06
3.999912428e-06
3.999904608e-06
3.999893867e-06
3.999896988e-06
3.796936207e-06
3.976604112e-06
3.991636642e-06
3.995733152e-06
3.997418079e-06
3.998271047e-06
3.998761712e-06
3.999069616e-06
3.999275432e-06
3.999419773e-06
3.999524895e-06
3.99960382e-06
3.999664584e-06
3.999712361e-06
3.999750605e-06
3.999781694e-06
3.999807308e-06
3.999828662e-06
3.999846651e-06
3.999861947e-06
3.999875061e-06
3.999886391e-06
3.999896245e-06
3.999904869e-06
3.999912448e-06
3.999912434e-06
3.999904831e-06
3.999895942e-06
3.99988377e-06
3.999886694e-06
3.797011189e-06
3.976613347e-06
3.991639724e-06
3.995734668e-06
3.997418967e-06
3.998271622e-06
3.998762111e-06
3.999069906e-06
3.999275651e-06
3.999419943e-06
3.999525029e-06
3.999603929e-06
3.999664673e-06
3.999712435e-06
3.999750667e-06
3.999781747e-06
3.999807353e-06
3.999828701e-06
3.999846685e-06
3.999861976e-06
3.999875087e-06
3.999886413e-06
3.999896265e-06
3.999904887e-06
3.999912463e-06
3.999912448e-06
3.999904838e-06
3.999896184e-06
3.999886037e-06
3.999872158e-06
3.999874776e-06
3.797088855e-06
3.976622546e-06
3.991642898e-06
3.995736233e-06
3.997419883e-06
3.998272216e-06
3.998762522e-06
3.999070206e-06
3.999275877e-06
3.999420118e-06
3.999525168e-06
3.999604041e-06
3.999664765e-06
3.999712511e-06
3.999750731e-06
3.999781801e-06
3.9998074e-06
3.999828741e-06
3.999846719e-06
3.999862006e-06
3.999875113e-06
3.999886436e-06
3.999896285e-06
3.999904905e-06
3.99991248e-06
3.999912463e-06
3.999904852e-06
3.999896191e-06
3.999886302e-06
3.999874648e-06
3.999858714e-06
3.999860872e-06
3.797169386e-06
3.976631592e-06
3.991646166e-06
3.995737849e-06
3.997420829e-06
3.99827283e-06
3.998762948e-06
3.999070515e-06
3.99927611e-06
3.999420299e-06
3.999525312e-06
3.999604157e-06
3.99966486e-06
3.99971259e-06
3.999750797e-06
3.999781857e-06
3.999807448e-06
3.999828782e-06
3.999846755e-06
3.999862037e-06
3.999875141e-06
3.99988646e-06
3.999896307e-06
3.999904924e-06
3.999912496e-06
3.99991248e-06
3.999904869e-06
3.999896207e-06
3.99988631e-06
3.999874939e-06
3.999861461e-06
3.99984303e-06
3.999844515e-06
3.797253002e-06
3.976640342e-06
3.991649526e-06
3.995739518e-06
3.997421807e-06
3.998273463e-06
3.998763387e-06
3.999070834e-06
3.999276351e-06
3.999420486e-06
3.99952546e-06
3.999604276e-06
3.999664958e-06
3.999712671e-06
3.999750865e-06
3.999781915e-06
3.999807497e-06
3.999828825e-06
3.999846792e-06
3.999862069e-06
3.999875169e-06
3.999886485e-06
3.999896329e-06
3.999904944e-06
3.999912514e-06
3.999912496e-06
3.999904887e-06
3.999896226e-06
3.999886327e-06
3.999874947e-06
3.999861784e-06
3.999846079e-06
3.99982458e-06
3.999825093e-06
3.797339884e-06
3.976648596e-06
3.991652977e-06
3.995741243e-06
3.997422816e-06
3.998274117e-06
3.99876384e-06
3.999071164e-06
3.9992766e-06
3.999420679e-06
3.999525613e-06
3.9996044e-06
3.999665059e-06
3.999712755e-06
3.999750936e-06
3.999781975e-06
3.999807548e-06
3.999828869e-06
3.99984683e-06
3.999862103e-06
3.999875198e-06
3.999886511e-06
3.999896351e-06
3.999904964e-06
3.999912532e-06
3.999912514e-06
3.999904905e-06
3.999896245e-06
3.999886348e-06
3.999874967e-06
3.999861793e-06
3.999846438e-06
3.999827985e-06
3.999802674e-06
3.999801789e-06
3.79742878e-06
3.976656363e-06
3.991656518e-06
3.995743024e-06
3.997423859e-06
3.998274793e-06
3.998764309e-06
3.999071505e-06
3.999276857e-06
3.999420878e-06
3.99952577e-06
3.999604527e-06
3.999665164e-06
3.999712842e-06
3.999751009e-06
3.999782036e-06
3.999807601e-06
3.999828914e-06
3.999846869e-06
3.999862137e-06
3.999875228e-06
3.999886537e-06
3.999896375e-06
3.999904985e-06
3.99991255e-06
3.999912532e-06
3.999904924e-06
3.999896265e-06
3.999886369e-06
3.999874989e-06
3.999861814e-06
3.999846448e-06
3.999828386e-06
3.999806504e-06
3.999776393e-06
3.999773494e-06
3.797520179e-06
3.976668304e-06
3.991660149e-06
3.995744865e-06
3.997424938e-06
3.998275492e-06
3.998764793e-06
3.999071857e-06
3.999277122e-06
3.999421084e-06
3.999525934e-06
3.999604659e-06
3.999665272e-06
3.999712932e-06
3.999751084e-06
3.9997821e-06
3.999807656e-06
3.999828961e-06
3.99984691e-06
3.999862172e-06
3.999875259e-06
3.999886565e-06
3.999896399e-06
3.999905006e-06
3.999912569e-06
3.99991255e-06
3.999904944e-06
3.999896285e-06
3.999886391e-06
3.999875012e-06
3.999861839e-06
3.999846471e-06
3.999828397e-06
3.999806954e-06
3.999780738e-06
3.999744409e-06
3.999738674e-06
3.797614639e-06
3.976683723e-06
3.991663987e-06
3.995746768e-06
3.997426052e-06
3.998276213e-06
3.998765292e-06
3.99907222e-06
3.999277396e-06
3.999421296e-06
3.999526102e-06
3.999604795e-06
3.999665383e-06
3.999713024e-06
3.999751162e-06
3.999782166e-06
3.999807712e-06
3.99982901e-06
3.999846952e-06
3.999862209e-06
3.999875291e-06
3.999886593e-06
3.999896424e-06
3.999905028e-06
3.999912589e-06
3.999912569e-06
3.999904964e-06
3.999896307e-06
3.999886413e-06
3.999875036e-06
3.999861865e-06
3.999846499e-06
3.999828424e-06
3.999806967e-06
3.999781243e-06
3.999749458e-06
3.99970524e-06
3.999695155e-06
3.797712376e-06
3.976701043e-06
3.991668026e-06
3.995748742e-06
3.997427205e-06
3.998276959e-06
3.998765809e-06
3.999072596e-06
3.999277679e-06
3.999421515e-06
3.999526276e-06
3.999604935e-06
3.999665498e-06
3.99971312e-06
3.999751242e-06
3.999782234e-06
3.99980777e-06
3.99982906e-06
3.999846996e-06
3.999862247e-06
3.999875324e-06
3.999886622e-06
3.99989645e-06
3.999905051e-06
3.999912609e-06
3.999912589e-06
3.999904985e-06
3.999896329e-06
3.999886436e-06
3.999875061e-06
3.999861891e-06
3.999846527e-06
3.999828455e-06
3.999806997e-06
3.999781256e-06
3.999750042e-06
3.999710974e-06
3.999656351e-06
3.999639783e-06
3.797813463e-06
3.976720073e-06
3.991672232e-06
3.995750791e-06
3.997428399e-06
3.998277731e-06
3.998766343e-06
3.999072983e-06
3.999277971e-06
3.999421742e-06
3.999526455e-06
3.99960508e-06
3.999665617e-06
3.999713218e-06
3.999751325e-06
3.999782304e-06
3.99980783e-06
3.999829111e-06
3.99984704e-06
3.999862286e-06
3.999875358e-06
3.999886652e-06
3.999896476e-06
3.999905075e-06
3.999912631e-06
3.99991261e-06
3.999905006e-06
3.999896351e-06
3.99988646e-06
3.999875087e-06
3.999861918e-06
3.999846557e-06
3.999828487e-06
3.999807031e-06
3.99978129e-06
3.999750045e-06
3.999711666e-06
3.999662875e-06
3.999593951e-06
3.999567827e-06
3.797918297e-06
3.97674146e-06
3.991676588e-06
3.995752917e-06
3.997429638e-06
3.99827853e-06
3.998766895e-06
3.999073384e-06
3.999278273e-06
3.999421976e-06
3.999526641e-06
3.99960523e-06
3.99966574e-06
3.99971332e-06
3.99975141e-06
3.999782377e-06
3.999807892e-06
3.999829165e-06
3.999847087e-06
3.999862326e-06
3.999875394e-06
3.999886683e-06
3.999896504e-06
3.999905099e-06
3.999912652e-06
3.999912631e-06
3.999905028e-06
3.999896375e-06
3.999886485e-06
3.999875113e-06
3.999861947e-06
3.999846587e-06
3.99982852e-06
3.999807067e-06
3.999781329e-06
3.999750083e-06
3.999711644e-06
3.999663642e-06
3.999601676e-06
3.999512796e-06
3.999471938e-06
3.798026865e-06
3.976764246e-06
3.991681102e-06
3.995755124e-06
3.997430924e-06
3.998279359e-06
3.998767467e-06
3.999073799e-06
3.999278585e-06
3.999422217e-06
3.999526832e-06
3.999605384e-06
3.999665866e-06
3.999713425e-06
3.999751499e-06
3.999782452e-06
3.999807956e-06
3.99982922e-06
3.999847134e-06
3.999862368e-06
3.99987543e-06
3.999886715e-06
3.999896532e-06
3.999905124e-06
3.999912675e-06
3.999912652e-06
3.999905051e-06
3.999896399e-06
3.999886511e-06
3.999875141e-06
3.999861976e-06
3.999846619e-06
3.999828554e-06
3.999807104e-06
3.99978137e-06
3.999750128e-06
3.999711687e-06
3.999663661e-06
3.999602595e-06
3.999522178e-06
3.999404618e-06
3.999340206e-06
3.798139473e-06
3.976789246e-06
3.991685804e-06
3.995757416e-06
3.997432258e-06
3.998280219e-06
3.99876806e-06
3.999074228e-06
3.999278908e-06
3.999422467e-06
3.99952703e-06
3.999605544e-06
3.999665997e-06
3.999713534e-06
3.99975159e-06
3.999782529e-06
3.999808022e-06
3.999829277e-06
3.999847184e-06
3.999862411e-06
3.999875468e-06
3.999886749e-06
3.999896561e-06
3.99990515e-06
3.999912698e-06
3.999912675e-06
3.999905075e-06
3.999896424e-06
3.999886537e-06
3.999875169e-06
3.999862006e-06
3.999846651e-06
3.999828589e-06
3.999807143e-06
3.999781412e-06
3.999750174e-06
3.999711739e-06
3.999663712e-06
3.999602623e-06
3.999523294e-06
3.999416277e-06
3.999256346e-06
3.999152248e-06
3.798256174e-06
3.976815766e-06
3.99169069e-06
3.995759799e-06
3.997433644e-06
3.998281112e-06
3.998768676e-06
3.999074673e-06
3.999279241e-06
3.999422725e-06
3.999527234e-06
3.999605709e-06
3.999666132e-06
3.999713646e-06
3.999751684e-06
3.999782609e-06
3.99980809e-06
3.999829335e-06
3.999847234e-06
3.999862455e-06
3.999875507e-06
3.999886783e-06
3.999896592e-06
3.999905177e-06
3.999912722e-06
3.999912698e-06
3.999905099e-06
3.99989645e-06
3.999886565e-06
3.999875198e-06
3.999862037e-06
3.999846685e-06
3.999828625e-06
3.999807182e-06
3.999781455e-06
3.999750222e-06
3.999711792e-06
3.999663772e-06
3.999602685e-06
3.999523328e-06
3.999417654e-06
3.999270861e-06
3.999044899e-06
3.99887097e-06
3.798377241e-06
3.976845472e-06
3.991695776e-06
3.995762278e-06
3.997435085e-06
3.99828204e-06
3.998769315e-06
3.999075135e-06
3.999279587e-06
3.999422992e-06
3.999527446e-06
3.999605879e-06
3.999666272e-06
3.999713762e-06
3.999751781e-06
3.999782691e-06
3.999808161e-06
3.999829396e-06
3.999847287e-06
3.999862501e-06
3.999875547e-06
3.999886818e-06
3.999896623e-06
3.999905205e-06
3.999912747e-06
3.999912722e-06
3.999905125e-06
3.999896476e-06
3.999886593e-06
3.999875228e-06
3.99986207e-06
3.999846719e-06
3.999828662e-06
3.999807223e-06
3.9997815e-06
3.999750272e-06
3.999711848e-06
3.999663835e-06
3.999602756e-06
3.999523402e-06
3.999417696e-06
3.999272573e-06
3.999063629e-06
3.99872848e-06
3.998422274e-06
3.798503347e-06
3.97687405e-06
3.991701084e-06
3.995764862e-06
3.997436585e-06
3.998283004e-06
3.998769978e-06
3.999075615e-06
3.999279947e-06
3.999423269e-06
3.999527664e-06
3.999606055e-06
3.999666416e-06
3.999713882e-06
3.999751882e-06
3.999782776e-06
3.999808233e-06
3.999829459e-06
3.999847341e-06
3.999862548e-06
3.999875588e-06
3.999886855e-06
3.999896655e-06
3.999905234e-06
3.999912772e-06
3.999912747e-06
3.999905151e-06
3.999896504e-06
3.999886622e-06
3.999875259e-06
3.999862103e-06
3.999846755e-06
3.999828701e-06
3.999807265e-06
3.999781546e-06
3.999750323e-06
3.999711905e-06
3.999663899e-06
3.99960283e-06
3.999523488e-06
3.999417786e-06
3.999272627e-06
3.999065676e-06
3.998753431e-06
3.998224098e-06
3.99764259e-06
3.798638721e-06
3.976915114e-06
3.991706654e-06
3.995767556e-06
3.997438146e-06
3.998284007e-06
3.998770668e-06
3.999076113e-06
3.99928032e-06
3.999423556e-06
3.99952789e-06
3.999606237e-06
3.999666565e-06
3.999714005e-06
3.999751985e-06
3.999782864e-06
3.999808308e-06
3.999829523e-06
3.999847397e-06
3.999862597e-06
3.999875631e-06
3.999886892e-06
3.999896689e-06
3.999905263e-06
3.999912799e-06
3.999912773e-06
3.999905178e-06
3.999896532e-06
3.999886653e-06
3.999875291e-06
3.999862137e-06
3.999846792e-06
3.999828741e-06
3.999807309e-06
3.999781594e-06
3.999750376e-06
3.999711964e-06
3.999663966e-06
3.999602906e-06
3.999523577e-06
3.999417891e-06
3.999272738e-06
3.99906573e-06
3.998756079e-06
3.998258856e-06
3.997346869e-06
3.996099315e-06
3.798772445e-06
3.976932845e-06
3.991712644e-06
3.995770368e-06
3.997439775e-06
3.998285052e-06
3.998771385e-06
3.99907663e-06
3.999280707e-06
3.999423854e-06
3.999528124e-06
3.999606425e-06
3.999666719e-06
3.999714133e-06
3.999752092e-06
3.999782955e-06
3.999808386e-06
3.99982959e-06
3.999847455e-06
3.999862648e-06
3.999875675e-06
3.999886931e-06
3.999896723e-06
3.999905294e-06
3.999912826e-06
3.999912799e-06
3.999905206e-06
3.999896562e-06
3.999886684e-06
3.999875325e-06
3.999862173e-06
3.99984683e-06
3.999828783e-06
3.999807354e-06
3.999781643e-06
3.99975043e-06
3.999712025e-06
3.999664035e-06
3.999602985e-06
3.999523668e-06
3.999417999e-06
3.999272868e-06
3.999065874e-06
3.99875615e-06
3.998262615e-06
3.997398859e-06
3.99561358e-06
3.99235758e-06
3.799214298e-06
3.976996831e-06
3.991718541e-06
3.995773306e-06
3.997441474e-06
3.998286141e-06
3.998772133e-06
3.999077168e-06
3.999281109e-06
3.999424164e-06
3.999528368e-06
3.99960662e-06
3.999666878e-06
3.999714265e-06
3.999752203e-06
3.999783048e-06
3.999808466e-06
3.999829659e-06
3.999847515e-06
3.9998627e-06
3.999875721e-06
3.999886971e-06
3.999896758e-06
3.999905325e-06
3.999912854e-06
3.999912826e-06
3.999905234e-06
3.999896592e-06
3.999886716e-06
3.999875359e-06
3.999862209e-06
3.99984687e-06
3.999828825e-06
3.9998074e-06
3.999781694e-06
3.999750487e-06
3.999712088e-06
3.999664106e-06
3.999603066e-06
3.999523763e-06
3.999418111e-06
3.999273004e-06
3.999066042e-06
3.998756343e-06
3.998262722e-06
3.997404612e-06
3.995699646e-06
3.991397924e-06
3.978757275e-06
3.790592449e-06
3.977007449e-06
3.991725511e-06
3.995776383e-06
3.997443249e-06
3.998287277e-06
3.998772911e-06
3.999077729e-06
3.999281527e-06
3.999424485e-06
3.999528621e-06
3.999606823e-06
3.999667043e-06
3.999714401e-06
3.999752317e-06
3.999783145e-06
3.999808549e-06
3.99982973e-06
3.999847577e-06
3.999862753e-06
3.999875768e-06
3.999887013e-06
3.999896795e-06
3.999905358e-06
3.999912883e-06
3.999912855e-06
3.999905264e-06
3.999896624e-06
3.999886749e-06
3.999875394e-06
3.999862247e-06
3.999846911e-06
3.999828869e-06
3.999807448e-06
3.999781747e-06
3.999750545e-06
3.999712153e-06
3.99966418e-06
3.99960315e-06
3.99952386e-06
3.999418226e-06
3.999273143e-06
3.999066216e-06
3.998756568e-06
3.998262993e-06
3.997404783e-06
3.995709413e-06
3.991567591e-06
3.975935964e-06
3.81351091e-06
3.976304618e-06
3.92299661e-06
3.991738783e-06
3.995779567e-06
3.997445107e-06
3.998288463e-06
3.998773724e-06
3.999078313e-06
3.999281963e-06
3.999424819e-06
3.999528884e-06
3.999607034e-06
3.999667213e-06
3.999714542e-06
3.999752435e-06
3.999783245e-06
3.999808634e-06
3.999829804e-06
3.99984764e-06
3.999862809e-06
3.999875817e-06
3.999887056e-06
3.999896833e-06
3.999905392e-06
3.999912913e-06
3.999912884e-06
3.999905295e-06
3.999896656e-06
3.999886784e-06
3.999875431e-06
3.999862287e-06
3.999846953e-06
3.999828915e-06
3.999807498e-06
3.999781801e-06
3.999750605e-06
3.99971222e-06
3.999664255e-06
3.999603237e-06
3.999523961e-06
3.999418345e-06
3.999273287e-06
3.999066395e-06
3.998756799e-06
3.998263306e-06
3.997405187e-06
3.995709698e-06
3.991586922e-06
3.976426175e-06
3.791020937e-06
3.991576738e-06
3.989071125e-06
3.835114961e-06
3.979505538e-06
3.99578565e-06
3.997447045e-06
3.998289705e-06
3.998774571e-06
3.999078921e-06
3.999282416e-06
3.999425167e-06
3.999529157e-06
3.999607252e-06
3.999667391e-06
3.999714688e-06
3.999752557e-06
3.999783349e-06
3.999808722e-06
3.99982988e-06
3.999847706e-06
3.999862866e-06
3.999875867e-06
3.9998871e-06
3.999896872e-06
3.999905426e-06
3.999912944e-06
3.999912914e-06
3.999905327e-06
3.99989669e-06
3.999886819e-06
3.999875469e-06
3.999862327e-06
3.999846996e-06
3.999828962e-06
3.999807549e-06
3.999781858e-06
3.999750667e-06
3.99971229e-06
3.999664334e-06
3.999603327e-06
3.999524065e-06
3.999418469e-06
3.999273436e-06
3.99906658e-06
3.998757038e-06
3.998263629e-06
3.997405655e-06
3.995710364e-06
3.991587478e-06
3.976452713e-06
3.795186127e-06
3.995727516e-06
3.994341949e-06
3.994191816e-06
3.795841377e-06
3.980967402e-06
3.994223085e-06
3.997450451e-06
3.998291014e-06
3.998775459e-06
3.999079556e-06
3.999282889e-06
3.999425529e-06
3.999529441e-06
3.999607479e-06
3.999667576e-06
3.99971484e-06
3.999752683e-06
3.999783455e-06
3.999808813e-06
3.999829958e-06
3.999847774e-06
3.999862925e-06
3.999875919e-06
3.999887146e-06
3.999896913e-06
3.999905462e-06
3.999912976e-06
3.999912945e-06
3.999905359e-06
3.999896724e-06
3.999886856e-06
3.999875508e-06
3.999862369e-06
3.999847041e-06
3.999829011e-06
3.999807602e-06
3.999781916e-06
3.999750732e-06
3.999712361e-06
3.999664415e-06
3.999603419e-06
3.999524173e-06
3.999418596e-06
3.99927359e-06
3.999066771e-06
3.998757284e-06
3.998263962e-06
3.997406139e-06
3.995711137e-06
3.991588765e-06
3.976452233e-06
3.795660504e-06
3.997426502e-06
3.996821941e-06
3.996441063e-06
3.996454192e-06
3.787693936e-06
3.981045728e-06
3.992326972e-06
3.996865862e-06
3.998293164e-06
3.998776405e-06
3.999080222e-06
3.999283381e-06
3.999425906e-06
3.999529736e-06
3.999607715e-06
3.999667767e-06
3.999714997e-06
3.999752815e-06
3.999783565e-06
3.999808907e-06
3.999830039e-06
3.999847844e-06
3.999862986e-06
3.999875972e-06
3.999887193e-06
3.999896954e-06
3.999905499e-06
3.999913009e-06
3.999912977e-06
3.999905393e-06
3.99989676e-06
3.999886894e-06
3.999875548e-06
3.999862412e-06
3.999847088e-06
3.999829061e-06
3.999807657e-06
3.999781976e-06
3.999750798e-06
3.999712435e-06
3.999664499e-06
3.999603515e-06
3.999524284e-06
3.999418727e-06
3.999273749e-06
3.999066969e-06
3.998757539e-06
3.998264306e-06
3.997406635e-06
3.995711937e-06
3.991590276e-06
3.97645354e-06
3.795673942e-06
3.9982831e-06
3.997956586e-06
3.997747703e-06
3.997666369e-06
3.997641686e-06
3.785762426e-06
3.980261195e-06
3.991471259e-06
3.995742293e-06
3.997693657e-06
3.998777904e-06
3.999080937e-06
3.999283898e-06
3.999426299e-06
3.999530044e-06
3.99960796e-06
3.999667966e-06
3.999715161e-06
3.999752951e-06
3.999783679e-06
3.999809005e-06
3.999830122e-06
3.999847916e-06
3.99986305e-06
3.999876028e-06
3.999887241e-06
3.999896997e-06
3.999905537e-06
3.999913043e-06
3.99991301e-06
3.999905428e-06
3.999896797e-06
3.999886933e-06
3.99987559e-06
3.999862457e-06
3.999847136e-06
3.999829113e-06
3.999807713e-06
3.999782038e-06
3.999750867e-06
3.999712512e-06
3.999664585e-06
3.999603614e-06
3.999524399e-06
3.999418863e-06
3.999273913e-06
3.999067173e-06
3.998757802e-06
3.998264662e-06
3.997407149e-06
3.995712758e-06
3.991591837e-06
3.976456992e-06
3.795704082e-06
3.99877443e-06
3.998576929e-06
3.998439703e-06
3.998367585e-06
3.998330206e-06
3.998311013e-06
3.783280827e-06
3.979452146e-06
3.991173639e-06
3.99527008e-06
3.997220533e-06
3.998276662e-06
3.999082101e-06
3.999284453e-06
3.999426711e-06
3.999530364e-06
3.999608216e-06
3.999668173e-06
3.999715331e-06
3.999753092e-06
3.999783798e-06
3.999809105e-06
3.999830209e-06
3.999847991e-06
3.999863115e-06
3.999876085e-06
3.999887292e-06
3.999897042e-06
3.999905577e-06
3.999913078e-06
3.999913044e-06
3.999905464e-06
3.999896835e-06
3.999886973e-06
3.999875633e-06
3.999862503e-06
3.999847185e-06
3.999829166e-06
3.999807772e-06
3.999782102e-06
3.999750937e-06
3.999712591e-06
3.999664674e-06
3.999603716e-06
3.999524517e-06
3.999419003e-06
3.999274083e-06
3.999067384e-06
3.998758073e-06
3.998265029e-06
3.99740768e-06
3.995713607e-06
3.991593428e-06
3.976461089e-06
3.795738976e-06
3.999081846e-06
3.998951585e-06
3.998854873e-06
3.998794147e-06
3.99875358e-06
3.998724307e-06
3.998704288e-06
3.780436417e-06
3.978677758e-06
3.990994135e-06
3.99513603e-06
3.997006231e-06
3.998041292e-06
3.998679284e-06
3.999285434e-06
3.999427153e-06
3.9995307e-06
3.999608482e-06
3.999668389e-06
3.999715508e-06
3.999753239e-06
3.999783921e-06
3.999809209e-06
3.999830298e-06
3.999848068e-06
3.999863182e-06
3.999876143e-06
3.999887343e-06
3.999897087e-06
3.999905618e-06
3.999913115e-06
3.99991308e-06
3.999905502e-06
3.999896875e-06
3.999887015e-06
3.999875678e-06
3.99986255e-06
3.999847237e-06
3.999829222e-06
3.999807832e-06
3.999782168e-06
3.999751011e-06
3.999712673e-06
3.999664767e-06
3.999603822e-06
3.99952464e-06
3.999419148e-06
3.999274258e-06
3.999067602e-06
3.998758354e-06
3.998265409e-06
3.997408229e-06
3.995714486e-06
3.991595118e-06
3.976465626e-06
3.795774936e-06
3.999286474e-06
3.999195018e-06
3.999123037e-06
3.999074051e-06
3.999038594e-06
3.999004093e-06
3.998977923e-06
3.998960573e-06
3.777643297e-06
3.977942983e-06
3.990830896e-06
3.995075962e-06
3.996940079e-06
3.997918202e-06
3.998550204e-06
3.9989505e-06
3.99942794e-06
3.999531057e-06
3.999608762e-06
3.999668612e-06
3.999715692e-06
3.999753391e-06
3.999784049e-06
3.999809317e-06
3.99983039e-06
3.999848148e-06
3.999863251e-06
3.999876204e-06
3.999887397e-06
3.999897135e-06
3.99990566e-06
3.999913152e-06
3.999913116e-06
3.999905541e-06
3.999896915e-06
3.999887059e-06
3.999875724e-06
3.9998626e-06
3.99984729e-06
3.999829279e-06
3.999807894e-06
3.999782236e-06
3.999751086e-06
3.999712757e-06
3.999664862e-06
3.999603931e-06
3.999524766e-06
3.999419298e-06
3.999274439e-06
3.999067827e-06
3.998758644e-06
3.998265801e-06
3.997408796e-06
3.995715393e-06
3.991596842e-06
3.976470365e-06
3.79581201e-06
3.999429651e-06
3.999362037e-06
3.999307614e-06
3.999268953e-06
3.99923337e-06
3.999203075e-06
3.999175276e-06
3.999154616e-06
3.999142919e-06
3.774962168e-06
3.977261036e-06
3.990698976e-06
3.995028809e-06
3.996927716e-06
3.99787625e-06
3.998457658e-06
3.998863725e-06
3.999157841e-06
3.999531693e-06
3.999609057e-06
3.999668851e-06
3.999715883e-06
3.99975355e-06
3.999784182e-06
3.999809429e-06
3.999830485e-06
3.99984823e-06
3.999863323e-06
3.999876267e-06
3.999887452e-06
3.999897184e-06
3.999905703e-06
3.999913191e-06
3.999913154e-06
3.99990558e-06
3.999896958e-06
3.999887103e-06
3.999875771e-06
3.999862651e-06
3.999847344e-06
3.999829338e-06
3.999807959e-06
3.999782307e-06
3.999751164e-06
3.999712845e-06
3.99966496e-06
3.999604043e-06
3.999524897e-06
3.999419452e-06
3.999274626e-06
3.999068059e-06
3.998758944e-06
3.998266206e-06
3.997409382e-06
3.99571633e-06
3.991598622e-06
3.976475272e-06
3.795850266e-06
3.999533257e-06
3.999482277e-06
3.999441502e-06
3.99940564e-06
3.999375663e-06
3.999346462e-06
3.999321276e-06
3.99930011e-06
3.999286115e-06
3.999274004e-06
3.772386482e-06
3.976646886e-06
3.990606204e-06
3.995038564e-06
3.996879688e-06
3.997838785e-06
3.998409226e-06
3.998791222e-06
3.999114619e-06
3.999349614e-06
3.999609604e-06
3.9996691e-06
3.999716087e-06
3.999753714e-06
3.99978432e-06
3.999809545e-06
3.999830584e-06
3.999848315e-06
3.999863397e-06
3.999876332e-06
3.999887509e-06
3.999897234e-06
3.999905748e-06
3.999913231e-06
3.999913193e-06
3.999905622e-06
3.999897001e-06
3.999887149e-06
3.99987582e-06
3.999862703e-06
3.999847401e-06
3.9998294e-06
3.999808025e-06
3.99978238e-06
3.999751245e-06
3.999712935e-06
3.999665062e-06
3.99960416e-06
3.999525032e-06
3.999419612e-06
3.999274819e-06
3.999068299e-06
3.998759253e-06
3.998266624e-06
3.997409987e-06
3.995717298e-06
3.991600461e-06
3.976480359e-06
3.79588978e-06
3.999611021e-06
3.999571476e-06
3.999537896e-06
3.999508216e-06
3.999480449e-06
3.999454859e-06
3.999431333e-06
3.999411598e-06
3.999398785e-06
3.99938715e-06
3.99937669e-06
3.769917525e-06
3.976119345e-06
3.990552628e-06
3.994968417e-06
3.996816489e-06
3.997797549e-06
3.998379069e-06
3.998751794e-06
3.999045262e-06
3.999330052e-06
3.999596249e-06
3.999669582e-06