/*--------------------------------*- C++ -*----------------------------------*\
  =========                 |
  \\      /  F ield         | OpenFOAM: The Open Source CFD Toolbox
   \\    /   O peration     | Website:  https://openfoam.org
    \\  /    A nd           | Version:  dev
     \\/     M anipulation  |
\*---------------------------------------------------------------------------*/
FoamFile
{
    version     2.0;
    format      ascii;
    class       volScalarField;
    location    "0.024";
    object      nuTilda_0;
}
// * * * * * * * * * * * * * * * * * * * * * * * * * * * * * * * * * * * * * //

dimensions      [0 2 -1 0 0 0 0];

internalField   nonuniform List<scalar> 
197600
(
3.826739182e-06
3.807584879e-06
3.980349063e-06
3.811178918e-06
3.977957238e-06
3.992929101e-06
3.811552607e-06
3.978378301e-06
3.992116928e-06
3.996391383e-06
3.811567174e-06
3.978397321e-06
3.992262684e-06
3.995980074e-06
3.997818872e-06
3.811595985e-06
3.978397176e-06
3.992277798e-06
3.996053998e-06
3.99756851e-06
3.998540263e-06
3.811628349e-06
3.978398741e-06
3.992278405e-06
3.996061639e-06
3.997613166e-06
3.998372429e-06
3.998955339e-06
3.811661692e-06
3.978402015e-06
3.992279628e-06
3.996061948e-06
3.997617668e-06
3.998402299e-06
3.998834677e-06
3.999215582e-06
3.811696079e-06
3.978405756e-06
3.99228102e-06
3.996062579e-06
3.997617853e-06
3.998405235e-06
3.998856126e-06
3.999124665e-06
3.999389477e-06
3.811731574e-06
3.97840987e-06
3.992282457e-06
3.996063289e-06
3.997618236e-06
3.998405355e-06
3.99885819e-06
3.999140782e-06
3.999318457e-06
3.99951136e-06
3.811768221e-06
3.978414198e-06
3.992283942e-06
3.996064023e-06
3.997618665e-06
3.998405611e-06
3.998858272e-06
3.999142374e-06
3.99933095e-06
3.999454373e-06
3.999600082e-06
3.811806061e-06
3.978418699e-06
3.992285476e-06
3.99606478e-06
3.997619109e-06
3.998405899e-06
3.998858455e-06
3.999142435e-06
3.99933229e-06
3.999464384e-06
3.999553502e-06
3.999666663e-06
3.811845131e-06
3.978423374e-06
3.992287062e-06
3.996065562e-06
3.997619567e-06
3.998406196e-06
3.998858661e-06
3.999142572e-06
3.999332344e-06
3.99946546e-06
3.999561556e-06
3.999627867e-06
3.999717899e-06
3.81188547e-06
3.97842823e-06
3.9922887e-06
3.996066369e-06
3.99762004e-06
3.998406502e-06
3.998858874e-06
3.999142727e-06
3.999332451e-06
3.999465504e-06
3.999562428e-06
3.999634502e-06
3.999685048e-06
3.999758168e-06
3.811927118e-06
3.978433279e-06
3.992290392e-06
3.996067204e-06
3.997620528e-06
3.998406819e-06
3.998859094e-06
3.999142886e-06
3.999332571e-06
3.99946559e-06
3.999562464e-06
3.999635219e-06
3.999690657e-06
3.999729861e-06
3.999790389e-06
3.811970113e-06
3.978438537e-06
3.992292141e-06
3.996068065e-06
3.997621033e-06
3.998407146e-06
3.99885932e-06
3.999143051e-06
3.999332696e-06
3.999465687e-06
3.999562535e-06
3.999635249e-06
3.999691253e-06
3.999734789e-06
3.999765761e-06
3.999816573e-06
3.812014498e-06
3.978444018e-06
3.992293948e-06
3.996068955e-06
3.997621554e-06
3.998407483e-06
3.998859554e-06
3.999143221e-06
3.999332824e-06
3.999465786e-06
3.999562614e-06
3.999635307e-06
3.999691275e-06
3.999735332e-06
3.999770103e-06
3.999795065e-06
3.999838139e-06
3.812060313e-06
3.978449722e-06
3.992295815e-06
3.996069874e-06
3.997622092e-06
3.998407832e-06
3.998859796e-06
3.999143397e-06
3.999332957e-06
3.999465889e-06
3.999562696e-06
3.999635373e-06
3.999691324e-06
3.999735319e-06
3.999770559e-06
3.999798806e-06
3.999819153e-06
3.999856112e-06
3.812107602e-06
3.978455657e-06
3.992297743e-06
3.996070823e-06
3.997622648e-06
3.998408192e-06
3.998860046e-06
3.999143579e-06
3.999333093e-06
3.999465995e-06
3.999562779e-06
3.999635442e-06
3.99969138e-06
3.99973536e-06
3.999770567e-06
3.999799201e-06
3.999822449e-06
3.999839229e-06
3.999871248e-06
3.812156409e-06
3.978461831e-06
3.992299736e-06
3.996071803e-06
3.997623222e-06
3.998408564e-06
3.998860304e-06
3.999143766e-06
3.999333235e-06
3.999466104e-06
3.999562866e-06
3.999635511e-06
3.999691438e-06
3.999735408e-06
3.999770603e-06
3.999799216e-06
3.999822802e-06
3.999842161e-06
3.999856139e-06
3.999884115e-06
3.812206782e-06
3.978468253e-06
3.992301795e-06
3.996072815e-06
3.997623814e-06
3.998408949e-06
3.99886057e-06
3.99914396e-06
3.999333381e-06
3.999466218e-06
3.999562956e-06
3.999635583e-06
3.999691496e-06
3.999735459e-06
3.999770645e-06
3.999799248e-06
3.999822816e-06
3.999842475e-06
3.999858764e-06
3.999870513e-06
3.999895145e-06
3.81225877e-06
3.97847493e-06
3.992303922e-06
3.99607386e-06
3.997624427e-06
3.998409345e-06
3.998860845e-06
3.99914416e-06
3.999333532e-06
3.999466334e-06
3.999563048e-06
3.999635658e-06
3.999691558e-06
3.999735508e-06
3.999770689e-06
3.999799285e-06
3.999822844e-06
3.999842487e-06
3.999859044e-06
3.999872878e-06
3.999882835e-06
3.999904671e-06
3.812312426e-06
3.978481868e-06
3.99230612e-06
3.996074939e-06
3.997625059e-06
3.998409755e-06
3.998861129e-06
3.999144367e-06
3.999333687e-06
3.999466455e-06
3.999563144e-06
3.999635735e-06
3.999691621e-06
3.99973556e-06
3.999770732e-06
3.999799324e-06
3.999822876e-06
3.999842512e-06
3.999859055e-06
3.99987313e-06
3.999884978e-06
3.999893477e-06
3.999912956e-06
3.812367807e-06
3.978489068e-06
3.99230839e-06
3.996076054e-06
3.997625711e-06
3.998410178e-06
3.998861423e-06
3.99914458e-06
3.999333848e-06
3.99946658e-06
3.999563243e-06
3.999635815e-06
3.999691686e-06
3.999735614e-06
3.999770777e-06
3.999799361e-06
3.99982291e-06
3.999842541e-06
3.999859078e-06
3.99987314e-06
3.999885206e-06
3.999895429e-06
3.999902732e-06
3.99992011e-06
3.812424975e-06
3.978496526e-06
3.992310735e-06
3.996077204e-06
3.997626385e-06
3.998410615e-06
3.998861725e-06
3.9991448e-06
3.999334014e-06
3.999466709e-06
3.999563345e-06
3.999635898e-06
3.999691754e-06
3.99973567e-06
3.999770824e-06
3.9997994e-06
3.999822943e-06
3.999842571e-06
3.999859104e-06
3.99987316e-06
3.999885215e-06
3.999895636e-06
3.999904517e-06
3.999910823e-06
3.999926372e-06
3.812483998e-06
3.978504234e-06
3.992313157e-06
3.996078393e-06
3.997627081e-06
3.998411066e-06
3.998862038e-06
3.999145028e-06
3.999334186e-06
3.999466842e-06
3.99956345e-06
3.999635983e-06
3.999691823e-06
3.999735728e-06
3.999770872e-06
3.999799441e-06
3.999822978e-06
3.999842601e-06
3.99985913e-06
3.999873184e-06
3.999885233e-06
3.999895644e-06
3.999904707e-06
3.99991247e-06
3.999917929e-06
3.999926362e-06
3.812544951e-06
3.978512174e-06
3.992315659e-06
3.99607962e-06
3.997627799e-06
3.998411532e-06
3.998862361e-06
3.999145263e-06
3.999334363e-06
3.999466979e-06
3.999563559e-06
3.999636071e-06
3.999691896e-06
3.999735788e-06
3.999770922e-06
3.999799483e-06
3.999823014e-06
3.999842631e-06
3.999859157e-06
3.999873207e-06
3.999885254e-06
3.999895661e-06
3.999904714e-06
3.999912644e-06
3.999919457e-06
3.999917927e-06
3.999920101e-06
3.812607921e-06
3.978520322e-06
3.99231824e-06
3.996080886e-06
3.997628541e-06
3.998412013e-06
3.998862695e-06
3.999145506e-06
3.999334546e-06
3.999467121e-06
3.999563672e-06
3.999636161e-06
3.99969197e-06
3.99973585e-06
3.999770974e-06
3.999799527e-06
3.999823052e-06
3.999842663e-06
3.999859184e-06
3.999873231e-06
3.999885275e-06
3.99989568e-06
3.999904729e-06
3.999912651e-06
3.999919618e-06
3.999919456e-06
3.999910821e-06
3.999912956e-06
3.812673002e-06
3.978528639e-06
3.992320905e-06
3.996082195e-06
3.997629307e-06
3.998412509e-06
3.998863039e-06
3.999145756e-06
3.999334735e-06
3.999467267e-06
3.999563788e-06
3.999636255e-06
3.999692047e-06
3.999735914e-06
3.999771028e-06
3.999799573e-06
3.999823091e-06
3.999842697e-06
3.999859213e-06
3.999873256e-06
3.999885298e-06
3.999895699e-06
3.999904746e-06
3.999912665e-06
3.999919625e-06
3.999919618e-06
3.99991247e-06
3.999902732e-06
3.999904672e-06
3.812740306e-06
3.978537074e-06
3.992323654e-06
3.996083545e-06
3.997630098e-06
3.998413022e-06
3.998863395e-06
3.999146015e-06
3.99933493e-06
3.999467419e-06
3.999563908e-06
3.999636352e-06
3.999692126e-06
3.99973598e-06
3.999771083e-06
3.99979962e-06
3.999823131e-06
3.999842731e-06
3.999859243e-06
3.999873282e-06
3.99988532e-06
3.999895719e-06
3.999904764e-06
3.999912681e-06
3.999919637e-06
3.999919625e-06
3.999912644e-06
3.999904517e-06
3.999893477e-06
3.999895146e-06
3.812809958e-06
3.978545561e-06
3.992326488e-06
3.99608494e-06
3.997630914e-06
3.998413551e-06
3.998863762e-06
3.999146282e-06
3.999335131e-06
3.999467575e-06
3.999564031e-06
3.999636452e-06
3.999692208e-06
3.999736048e-06
3.99977114e-06
3.999799668e-06
3.999823172e-06
3.999842767e-06
3.999859274e-06
3.999873309e-06
3.999885343e-06
3.99989574e-06
3.999904782e-06
3.999912697e-06
3.999919652e-06
3.999919637e-06
3.999912651e-06
3.999904707e-06
3.999895429e-06
3.999882835e-06
3.999884116e-06
3.812882104e-06
3.978554011e-06
3.992329409e-06
3.99608638e-06
3.997631758e-06
3.998414098e-06
3.998864141e-06
3.999146557e-06
3.999335339e-06
3.999467736e-06
3.999564159e-06
3.999636555e-06
3.999692293e-06
3.999736118e-06
3.999771199e-06
3.999799718e-06
3.999823215e-06
3.999842803e-06
3.999859305e-06
3.999873337e-06
3.999885368e-06
3.999895761e-06
3.999904801e-06
3.999912714e-06
3.999919667e-06
3.999919652e-06
3.999912665e-06
3.999904714e-06
3.999895636e-06
3.999884978e-06
3.999870513e-06
3.999871249e-06
3.81295691e-06
3.978562317e-06
3.992332416e-06
3.996087868e-06
3.997632629e-06
3.998414662e-06
3.998864532e-06
3.999146842e-06
3.999335554e-06
3.999467902e-06
3.999564291e-06
3.999636662e-06
3.99969238e-06
3.99973619e-06
3.99977126e-06
3.999799769e-06
3.999823259e-06
3.999842841e-06
3.999859338e-06
3.999873366e-06
3.999885393e-06
3.999895783e-06
3.999904821e-06
3.999912731e-06
3.999919682e-06
3.999919667e-06
3.999912681e-06
3.999904729e-06
3.999895644e-06
3.999885206e-06
3.999872878e-06
3.999856138e-06
3.999856113e-06
3.813034578e-06
3.978570346e-06
3.99233551e-06
3.996089404e-06
3.997633528e-06
3.998415245e-06
3.998864936e-06
3.999147136e-06
3.999335776e-06
3.999468074e-06
3.999564427e-06
3.999636772e-06
3.99969247e-06
3.999736265e-06
3.999771323e-06
3.999799823e-06
3.999823304e-06
3.999842881e-06
3.999859372e-06
3.999873395e-06
3.999885419e-06
3.999895806e-06
3.999904841e-06
3.999912749e-06
3.999919698e-06
3.999919682e-06
3.999912697e-06
3.999904746e-06
3.999895661e-06
3.999885215e-06
3.99987313e-06
3.999858764e-06
3.999839229e-06
3.99983814e-06
3.813115259e-06
3.978577911e-06
3.992338689e-06
3.996090991e-06
3.997634457e-06
3.998415847e-06
3.998865354e-06
3.99914744e-06
3.999336005e-06
3.999468252e-06
3.999564568e-06
3.999636885e-06
3.999692563e-06
3.999736343e-06
3.999771388e-06
3.999799878e-06
3.999823351e-06
3.999842921e-06
3.999859407e-06
3.999873426e-06
3.999885446e-06
3.99989583e-06
3.999904862e-06
3.999912767e-06
3.999919715e-06
3.999919698e-06
3.999912714e-06
3.999904764e-06
3.99989568e-06
3.999885233e-06
3.99987314e-06
3.999859044e-06
3.999842161e-06
3.999819152e-06
3.999816574e-06
3.813197798e-06
3.97858508e-06
3.992341954e-06
3.99609263e-06
3.997635417e-06
3.998416469e-06
3.998865785e-06
3.999147753e-06
3.999336241e-06
3.999468435e-06
3.999564713e-06
3.999637003e-06
3.999692659e-06
3.999736422e-06
3.999771455e-06
3.999799935e-06
3.9998234e-06
3.999842963e-06
3.999859444e-06
3.999873457e-06
3.999885473e-06
3.999895854e-06
3.999904883e-06
3.999912786e-06
3.999919732e-06
3.999919715e-06
3.999912731e-06
3.999904782e-06
3.999895699e-06
3.999885254e-06
3.99987316e-06
3.999859055e-06
3.999842475e-06
3.999822449e-06
3.999795066e-06
3.999790391e-06
3.813282664e-06
3.97859612e-06
3.992345305e-06
3.996094324e-06
3.997636409e-06
3.998417112e-06
3.99886623e-06
3.999148077e-06
3.999336485e-06
3.999468624e-06
3.999564864e-06
3.999637124e-06
3.999692759e-06
3.999736505e-06
3.999771524e-06
3.999799993e-06
3.99982345e-06
3.999843006e-06
3.999859481e-06
3.99987349e-06
3.999885502e-06
3.999895879e-06
3.999904906e-06
3.999912806e-06
3.999919749e-06
3.999919732e-06
3.999912749e-06
3.999904801e-06
3.999895719e-06
3.999885275e-06
3.999873183e-06
3.999859077e-06
3.999842487e-06
3.999822802e-06
3.999798805e-06
3.999765763e-06
3.999758169e-06
3.813370371e-06
3.978610299e-06
3.992348843e-06
3.996096075e-06
3.997637435e-06
3.998417776e-06
3.99886669e-06
3.999148411e-06
3.999336737e-06
3.99946882e-06
3.999565018e-06
3.999637249e-06
3.999692861e-06
3.99973659e-06
3.999771596e-06
3.999800054e-06
3.999823502e-06
3.999843051e-06
3.99985952e-06
3.999873524e-06
3.999885531e-06
3.999895905e-06
3.999904929e-06
3.999912827e-06
3.999919767e-06
3.999919749e-06
3.999912767e-06
3.999904821e-06
3.99989574e-06
3.999885297e-06
3.999873207e-06
3.999859103e-06
3.999842512e-06
3.999822816e-06
3.999799201e-06
3.999770103e-06
3.999729857e-06
3.9997179e-06
3.813461106e-06
3.978626187e-06
3.99235256e-06
3.996097891e-06
3.997638495e-06
3.998418462e-06
3.998867165e-06
3.999148757e-06
3.999336997e-06
3.999469021e-06
3.999565178e-06
3.999637378e-06
3.999692967e-06
3.999736678e-06
3.99977167e-06
3.999800116e-06
3.999823555e-06
3.999843097e-06
3.99985956e-06
3.999873558e-06
3.999885562e-06
3.999895932e-06
3.999904952e-06
3.999912848e-06
3.999919786e-06
3.999919768e-06
3.999912787e-06
3.999904841e-06
3.999895761e-06
3.99988532e-06
3.999873231e-06
3.999859129e-06
3.99984254e-06
3.999822844e-06
3.999799216e-06
3.999770556e-06
3.999734789e-06
3.999685046e-06
3.999666664e-06
3.813554936e-06
3.978643638e-06
3.992356421e-06
3.996099775e-06
3.997639593e-06
3.998419172e-06
3.998867657e-06
3.999149114e-06
3.999337266e-06
3.99946923e-06
3.999565344e-06
3.999637511e-06
3.999693077e-06
3.999736769e-06
3.999771746e-06
3.999800181e-06
3.999823611e-06
3.999843144e-06
3.999859601e-06
3.999873594e-06
3.999885593e-06
3.99989596e-06
3.999904977e-06
3.999912869e-06
3.999919806e-06
3.999919786e-06
3.999912806e-06
3.999904862e-06
3.999895783e-06
3.999885343e-06
3.999873256e-06
3.999859156e-06
3.999842569e-06
3.999822876e-06
3.999799248e-06
3.999770567e-06
3.999735328e-06
3.999690655e-06
3.999627867e-06
3.999600083e-06
3.813652237e-06
3.978663257e-06
3.992360418e-06
3.996101729e-06
3.997640733e-06
3.998419907e-06
3.998868164e-06
3.999149483e-06
3.999337544e-06
3.999469445e-06
3.999565514e-06
3.999637649e-06
3.999693189e-06
3.999736862e-06
3.999771824e-06
3.999800248e-06
3.999823668e-06
3.999843193e-06
3.999859643e-06
3.999873631e-06
3.999885626e-06
3.999895988e-06
3.999905002e-06
3.999912892e-06
3.999919826e-06
3.999919806e-06
3.999912827e-06
3.999904884e-06
3.999895806e-06
3.999885368e-06
3.999873282e-06
3.999859184e-06
3.9998426e-06
3.999822909e-06
3.999799284e-06
3.999770603e-06
3.999735318e-06
3.999691253e-06
3.999634502e-06
3.999553504e-06
3.999511361e-06
3.813752977e-06
3.978684051e-06
3.992364559e-06
3.996103756e-06
3.997641915e-06
3.998420669e-06
3.99886869e-06
3.999149864e-06
3.999337831e-06
3.999469668e-06
3.99956569e-06
3.999637791e-06
3.999693306e-06
3.999736959e-06
3.999771906e-06
3.999800317e-06
3.999823726e-06
3.999843244e-06
3.999859687e-06
3.99987367e-06
3.999885659e-06
3.999896018e-06
3.999905028e-06
3.999912915e-06
3.999919846e-06
3.999919826e-06
3.999912848e-06
3.999904906e-06
3.99989583e-06
3.999885393e-06
3.999873309e-06
3.999859213e-06
3.999842631e-06
3.999822943e-06
3.999799321e-06
3.999770644e-06
3.99973536e-06
3.999691275e-06
3.999635219e-06
3.999561556e-06
3.999454377e-06
3.999389478e-06
3.813857446e-06
3.978706824e-06
3.99236887e-06
3.996105861e-06
3.997643141e-06
3.99842146e-06
3.998869236e-06
3.999150259e-06
3.999338128e-06
3.999469897e-06
3.999565872e-06
3.999637938e-06
3.999693426e-06
3.999737059e-06
3.99977199e-06
3.999800388e-06
3.999823787e-06
3.999843296e-06
3.999859733e-06
3.999873709e-06
3.999885694e-06
3.999896048e-06
3.999905055e-06
3.999912939e-06
3.999919868e-06
3.999919846e-06
3.99991287e-06
3.999904929e-06
3.999895854e-06
3.999885419e-06
3.999873337e-06
3.999859243e-06
3.999842663e-06
3.999822978e-06
3.99979936e-06
3.999770687e-06
3.999735407e-06
3.999691324e-06
3.999635249e-06
3.999562428e-06
3.999464384e-06
3.999318458e-06
3.999215583e-06
3.813965702e-06
3.978730926e-06
3.992373348e-06
3.996108048e-06
3.997644414e-06
3.998422281e-06
3.998869802e-06
3.999150668e-06
3.999338435e-06
3.999470135e-06
3.999566061e-06
3.99963809e-06
3.999693551e-06
3.999737162e-06
3.999772076e-06
3.999800461e-06
3.99982385e-06
3.99984335e-06
3.999859779e-06
3.99987375e-06
3.99988573e-06
3.99989608e-06
3.999905083e-06
3.999912964e-06
3.99991989e-06
3.999919868e-06
3.999912892e-06
3.999904953e-06
3.999895879e-06
3.999885446e-06
3.999873366e-06
3.999859274e-06
3.999842697e-06
3.999823014e-06
3.9997994e-06
3.999770731e-06
3.999735457e-06
3.999691379e-06
3.999635307e-06
3.999562464e-06
3.99946546e-06
3.99933095e-06
3.999124664e-06
3.99895534e-06
3.814077926e-06
3.978757692e-06
3.992378009e-06
3.996110323e-06
3.997645736e-06
3.998423132e-06
3.998870389e-06
3.999151093e-06
3.999338753e-06
3.99947038e-06
3.999566255e-06
3.999638247e-06
3.999693679e-06
3.999737269e-06
3.999772166e-06
3.999800537e-06
3.999823915e-06
3.999843406e-06
3.999859828e-06
3.999873792e-06
3.999885767e-06
3.999896112e-06
3.999905112e-06
3.999912989e-06
3.999919913e-06
3.99991989e-06
3.999912915e-06
3.999904977e-06
3.999895905e-06
3.999885473e-06
3.999873395e-06
3.999859306e-06
3.999842731e-06
3.999823052e-06
3.999799441e-06
3.999770777e-06
3.999735508e-06
3.999691437e-06
3.999635373e-06
3.999562535e-06
3.999465504e-06
3.999332289e-06
3.999140776e-06
3.998834675e-06
3.998540264e-06
3.814195187e-06
3.978783743e-06
3.992382871e-06
3.996112692e-06
3.997647112e-06
3.998424018e-06
3.998870998e-06
3.999151534e-06
3.999339084e-06
3.999470635e-06
3.999566456e-06
3.999638409e-06
3.999693812e-06
3.999737379e-06
3.999772258e-06
3.999800615e-06
3.999823982e-06
3.999843464e-06
3.999859878e-06
3.999873836e-06
3.999885805e-06
3.999896146e-06
3.999905142e-06
3.999913016e-06
3.999919936e-06
3.999919913e-06
3.999912939e-06
3.999905002e-06
3.999895932e-06
3.999885502e-06
3.999873426e-06
3.999859338e-06
3.999842767e-06
3.999823091e-06
3.999799483e-06
3.999770824e-06
3.99973556e-06
3.999691496e-06
3.999635441e-06
3.999562613e-06
3.99946559e-06
3.999332345e-06
3.999142374e-06
3.998856129e-06
3.998372428e-06
3.997818875e-06
3.814320916e-06
3.978820115e-06
3.99238798e-06
3.99611516e-06
3.997648544e-06
3.998424938e-06
3.998871632e-06
3.999151991e-06
3.999339426e-06
3.999470899e-06
3.999566664e-06
3.999638576e-06
3.999693949e-06
3.999737493e-06
3.999772354e-06
3.999800696e-06
3.999824051e-06
3.999843523e-06
3.999859929e-06
3.999873881e-06
3.999885844e-06
3.999896181e-06
3.999905172e-06
3.999913043e-06
3.99991996e-06
3.999919936e-06
3.999912964e-06
3.999905029e-06
3.99989596e-06
3.999885532e-06
3.999873458e-06
3.999859372e-06
3.999842804e-06
3.999823131e-06
3.999799527e-06
3.999770872e-06
3.999735614e-06
3.999691558e-06
3.999635511e-06
3.999562695e-06
3.999465686e-06
3.999332451e-06
3.999142435e-06
3.998858192e-06
3.998402304e-06
3.99756851e-06
3.996391387e-06
3.814448019e-06
3.978836698e-06
3.992393441e-06
3.996117734e-06
3.997650036e-06
3.998425896e-06
3.99887229e-06
3.999152466e-06
3.999339782e-06
3.999471173e-06
3.999566879e-06
3.999638749e-06
3.999694091e-06
3.99973761e-06
3.999772452e-06
3.99980078e-06
3.999824122e-06
3.999843585e-06
3.999859983e-06
3.999873927e-06
3.999885885e-06
3.999896216e-06
3.999905204e-06
3.999913071e-06
3.999919985e-06
3.999919961e-06
3.99991299e-06
3.999905056e-06
3.999895989e-06
3.999885562e-06
3.99987349e-06
3.999859408e-06
3.999842842e-06
3.999823172e-06
3.999799573e-06
3.999770923e-06
3.999735671e-06
3.999691621e-06
3.999635584e-06
3.999562779e-06
3.999465786e-06
3.999332571e-06
3.999142572e-06
3.998858272e-06
3.998405236e-06
3.997613172e-06
3.995980074e-06
3.992929105e-06
3.81480639e-06
3.978891956e-06
3.992398816e-06
3.996120423e-06
3.997651593e-06
3.998426894e-06
3.998872975e-06
3.99915296e-06
3.999340152e-06
3.999471457e-06
3.999567103e-06
3.999638928e-06
3.999694237e-06
3.999737732e-06
3.999772554e-06
3.999800866e-06
3.999824196e-06
3.999843648e-06
3.999860038e-06
3.999873975e-06
3.999885927e-06
3.999896253e-06
3.999905237e-06
3.9999131e-06
3.999920011e-06
3.999919986e-06
3.999913016e-06
3.999905084e-06
3.999896018e-06
3.999885594e-06
3.999873524e-06
3.999859444e-06
3.999842881e-06
3.999823215e-06
3.99979962e-06
3.999770975e-06
3.999735729e-06
3.999691686e-06
3.999635658e-06
3.999562866e-06
3.999465889e-06
3.999332696e-06
3.999142727e-06
3.998858456e-06
3.998405355e-06
3.997617668e-06
3.996054004e-06
3.992116927e-06
3.9803491e-06
3.807473025e-06
3.978900543e-06
3.992405123e-06
3.996123235e-06
3.997653217e-06
3.998427935e-06
3.998873689e-06
3.999153474e-06
3.999340536e-06
3.999471753e-06
3.999567336e-06
3.999639115e-06
3.999694388e-06
3.999737857e-06
3.999772659e-06
3.999800955e-06
3.999824272e-06
3.999843714e-06
3.999860094e-06
3.999874025e-06
3.99988597e-06
3.999896292e-06
3.99990527e-06
3.99991313e-06
3.999920038e-06
3.999920012e-06
3.999913044e-06
3.999905112e-06
3.999896049e-06
3.999885626e-06
3.999873559e-06
3.999859481e-06
3.999842921e-06
3.999823259e-06
3.999799668e-06
3.999771028e-06
3.999735788e-06
3.999691754e-06
3.999635736e-06
3.999562956e-06
3.999465995e-06
3.999332824e-06
3.999142886e-06
3.998858662e-06
3.998405611e-06
3.997617853e-06
3.996061639e-06
3.992262686e-06
3.97795723e-06
3.826739196e-06
3.978319946e-06
3.930566993e-06
3.992416195e-06
3.996126151e-06
3.997654915e-06
3.998429021e-06
3.998874433e-06
3.999154009e-06
3.999340935e-06
3.999472059e-06
3.999567577e-06
3.999639308e-06
3.999694545e-06
3.999737987e-06
3.999772768e-06
3.999801047e-06
3.999824351e-06
3.999843781e-06
3.999860153e-06
3.999874076e-06
3.999886015e-06
3.999896331e-06
3.999905305e-06
3.999913161e-06
3.999920066e-06
3.999920038e-06
3.999913072e-06
3.999905142e-06
3.999896081e-06
3.99988566e-06
3.999873595e-06
3.99985952e-06
3.999842963e-06
3.999823305e-06
3.999799718e-06
3.999771084e-06
3.99973585e-06
3.999691824e-06
3.999635816e-06
3.999563049e-06
3.999466105e-06
3.999332957e-06
3.999143051e-06
3.998858874e-06
3.9984059e-06
3.997618236e-06
3.996061948e-06
3.992277799e-06
3.978378228e-06
3.807584896e-06
3.992280944e-06
3.989782069e-06
3.846122876e-06
3.981779944e-06
3.996131295e-06
3.997656689e-06
3.998430156e-06
3.998875209e-06
3.999154567e-06
3.999341351e-06
3.999472379e-06
3.999567828e-06
3.999639509e-06
3.999694709e-06
3.999738121e-06
3.99977288e-06
3.999801142e-06
3.999824432e-06
3.999843851e-06
3.999860213e-06
3.999874128e-06
3.999886061e-06
3.999896372e-06
3.999905341e-06
3.999913193e-06
3.999920094e-06
3.999920066e-06
3.999913101e-06
3.999905173e-06
3.999896113e-06
3.999885695e-06
3.999873632e-06
3.99985956e-06
3.999843007e-06
3.999823352e-06
3.99979977e-06
3.999771141e-06
3.999735914e-06
3.999691896e-06
3.999635898e-06
3.999563144e-06
3.999466218e-06
3.999333094e-06
3.999143222e-06
3.998859094e-06
3.998406196e-06
3.997618667e-06
3.99606258e-06
3.992278403e-06
3.978397221e-06
3.811178941e-06
3.996083348e-06
3.994809371e-06
3.994575043e-06
3.810831962e-06
3.982796838e-06
3.994715569e-06
3.997659591e-06
3.998431353e-06
3.998876021e-06
3.999155148e-06
3.999341784e-06
3.99947271e-06
3.999568088e-06
3.999639717e-06
3.999694878e-06
3.99973826e-06
3.999772996e-06
3.99980124e-06
3.999824516e-06
3.999843923e-06
3.999860276e-06
3.999874183e-06
3.999886109e-06
3.999896414e-06
3.999905378e-06
3.999913226e-06
3.999920124e-06
3.999920095e-06
3.999913131e-06
3.999905205e-06
3.999896147e-06
3.999885731e-06
3.999873671e-06
3.999859602e-06
3.999843051e-06
3.999823401e-06
3.999799823e-06
3.9997712e-06
3.99973598e-06
3.99969197e-06
3.999635983e-06
3.999563243e-06
3.999466335e-06
3.999333235e-06
3.999143398e-06
3.998859321e-06
3.998406503e-06
3.997619112e-06
3.996063291e-06
3.992279626e-06
3.978397046e-06
3.81155264e-06
3.997640228e-06
3.997080381e-06
3.996738954e-06
3.996735506e-06
3.804175593e-06
3.982681899e-06
3.992897191e-06
3.997065485e-06
3.998433194e-06
3.998876884e-06
3.999155757e-06
3.999342235e-06
3.999473056e-06
3.999568359e-06
3.999639934e-06
3.999695054e-06
3.999738405e-06
3.999773116e-06
3.999801341e-06
3.999824602e-06
3.999843998e-06
3.99986034e-06
3.999874239e-06
3.999886158e-06
3.999896457e-06
3.999905417e-06
3.99991326e-06
3.999920154e-06
3.999920124e-06
3.999913162e-06
3.999905238e-06
3.999896182e-06
3.999885768e-06
3.99987371e-06
3.999859644e-06
3.999843098e-06
3.999823451e-06
3.999799879e-06
3.999771261e-06
3.999736048e-06
3.999692047e-06
3.999636071e-06
3.999563345e-06
3.999466456e-06
3.999333381e-06
3.999143579e-06
3.998859555e-06
3.998406819e-06
3.997619568e-06
3.996064026e-06
3.992281016e-06
3.978398565e-06
3.81156722e-06
3.998425445e-06
3.998123299e-06
3.99793301e-06
3.997860208e-06
3.997837622e-06
3.802392392e-06
3.981941721e-06
3.992134845e-06
3.996052474e-06
3.997867834e-06
3.998878175e-06
3.999156409e-06
3.999342708e-06
3.999473416e-06
3.999568641e-06
3.999640159e-06
3.999695237e-06
3.999738556e-06
3.999773241e-06
3.999801446e-06
3.999824692e-06
3.999844075e-06
3.999860407e-06
3.999874297e-06
3.999886209e-06
3.999896502e-06
3.999905456e-06
3.999913295e-06
3.999920185e-06
3.999920155e-06
3.999913195e-06
3.999905272e-06
3.999896218e-06
3.999885806e-06
3.999873751e-06
3.999859688e-06
3.999843145e-06
3.999823503e-06
3.999799936e-06
3.999771324e-06
3.999736119e-06
3.999692127e-06
3.999636162e-06
3.999563451e-06
3.999466581e-06
3.999333532e-06
3.999143767e-06
3.998859797e-06
3.998407146e-06
3.997620041e-06
3.996064781e-06
3.992282452e-06
3.978401783e-06
3.811596049e-06
3.998875905e-06
3.998693209e-06
3.998568034e-06
3.998502574e-06
3.998466856e-06
3.998449823e-06
3.800006223e-06
3.981204824e-06
3.991877656e-06
3.995648344e-06
3.997436073e-06
3.998418909e-06
3.99915742e-06
3.999343214e-06
3.999473793e-06
3.999568935e-06
3.999640393e-06
3.999695427e-06
3.999738712e-06
3.999773371e-06
3.999801555e-06
3.999824784e-06
3.999844154e-06
3.999860476e-06
3.999874357e-06
3.999886262e-06
3.999896548e-06
3.999905497e-06
3.999913332e-06
3.999920218e-06
3.999920186e-06
3.999913228e-06
3.999905307e-06
3.999896255e-06
3.999885846e-06
3.999873794e-06
3.999859734e-06
3.999843195e-06
3.999823557e-06
3.999799995e-06
3.999771389e-06
3.999736191e-06
3.999692209e-06
3.999636256e-06
3.99956356e-06
3.99946671e-06
3.999333688e-06
3.999143961e-06
3.998860047e-06
3.998407484e-06
3.99762053e-06
3.996065563e-06
3.992283923e-06
3.978405561e-06
3.811628437e-06
3.999157787e-06
3.999037353e-06
3.998948975e-06
3.99889374e-06
3.998855975e-06
3.998828651e-06
3.998809933e-06
3.797355804e-06
3.980495005e-06
3.991714051e-06
3.99553535e-06
3.997247913e-06
3.9981973e-06
3.998788852e-06
3.999344075e-06
3.999474196e-06
3.999569242e-06
3.999640637e-06
3.999695625e-06
3.999738874e-06
3.999773506e-06
3.999801668e-06
3.999824879e-06
3.999844236e-06
3.999860547e-06
3.999874419e-06
3.999886316e-06
3.999896596e-06
3.99990554e-06
3.999913369e-06
3.999920251e-06
3.999920219e-06
3.999913262e-06
3.999905343e-06
3.999896294e-06
3.999885887e-06
3.999873838e-06
3.999859781e-06
3.999843246e-06
3.999823612e-06
3.999800055e-06
3.999771456e-06
3.999736267e-06
3.999692294e-06
3.999636353e-06
3.999563673e-06
3.999466843e-06
3.99933385e-06
3.999144161e-06
3.998860305e-06
3.998407834e-06
3.997621034e-06
3.996066371e-06
3.992285471e-06
3.978409735e-06
3.81166181e-06
3.999345428e-06
3.999260951e-06
3.999195064e-06
3.999150413e-06
3.999117795e-06
3.999085704e-06
3.999061633e-06
3.999045366e-06
3.79477072e-06
3.979819569e-06
3.991564891e-06
3.995480542e-06
3.997191594e-06
3.998086466e-06
3.998666636e-06
3.999036717e-06
3.999474892e-06
3.999569568e-06
3.999640893e-06
3.99969583e-06
3.999739043e-06
3.999773646e-06
3.999801786e-06
3.999824979e-06
3.999844321e-06
3.99986062e-06
3.999874483e-06
3.999886372e-06
3.999896645e-06
3.999905583e-06
3.999913408e-06
3.999920286e-06
3.999920253e-06
3.999913298e-06
3.999905381e-06
3.999896333e-06
3.999885929e-06
3.999873883e-06
3.99985983e-06
3.999843298e-06
3.99982367e-06
3.999800118e-06
3.999771526e-06
3.999736344e-06
3.999692382e-06
3.999636454e-06
3.999563789e-06
3.999466981e-06
3.999334016e-06
3.999144368e-06
3.998860572e-06
3.998408194e-06
3.997621556e-06
3.996067206e-06
3.992287056e-06
3.978414093e-06
3.811696226e-06
3.999476798e-06
3.999414367e-06
3.999364472e-06
3.999329332e-06
3.999296446e-06
3.999268441e-06
3.999242863e-06
3.999223941e-06
3.999213005e-06
3.792288513e-06
3.979191886e-06
3.991445767e-06
3.995437272e-06
3.997180795e-06
3.998050604e-06
3.998581482e-06
3.998954958e-06
3.999231229e-06
3.999570133e-06
3.999641163e-06
3.999696047e-06
3.999739218e-06
3.999773792e-06
3.999801908e-06
3.999825082e-06
3.999844408e-06
3.999860696e-06
3.999874549e-06
3.99988643e-06
3.999896696e-06
3.999905628e-06
3.999913448e-06
3.999920321e-06
3.999920287e-06
3.999913334e-06
3.99990542e-06
3.999896375e-06
3.999885973e-06
3.99987393e-06
3.99985988e-06
3.999843353e-06
3.999823729e-06
3.999800183e-06
3.999771598e-06
3.999736425e-06
3.999692472e-06
3.999636557e-06
3.99956391e-06
3.999467123e-06
3.999334188e-06
3.999144582e-06
3.998860847e-06
3.998408567e-06
3.997622095e-06
3.996068068e-06
3.992288693e-06
3.978418607e-06
3.811731744e-06
3.999571873e-06
3.999524857e-06
3.999487508e-06
3.999454637e-06
3.999427005e-06
3.99940009e-06
3.99937693e-06
3.999357549e-06
3.999344735e-06
3.999332719e-06
3.789903048e-06
3.978626188e-06
3.991362761e-06
3.995447293e-06
3.997135166e-06
3.998015567e-06
3.998539158e-06
3.998887766e-06
3.999189047e-06
3.999406053e-06
3.999641653e-06
3.999696275e-06
3.999739405e-06
3.999773942e-06
3.999802035e-06
3.999825188e-06
3.999844499e-06
3.999860774e-06
3.999874617e-06
3.999886489e-06
3.999896748e-06
3.999905674e-06
3.999913489e-06
3.999920358e-06
3.999920323e-06
3.999913372e-06
3.99990546e-06
3.999896417e-06
3.999886018e-06
3.999873978e-06
3.999859932e-06
3.999843409e-06
3.99982379e-06
3.999800251e-06
3.999771672e-06
3.999736508e-06
3.999692566e-06
3.999636664e-06
3.999564034e-06
3.99946727e-06
3.999334366e-06
3.999144803e-06
3.998861132e-06
3.998408952e-06
3.997622651e-06
3.996068958e-06
3.992290385e-06
3.978423288e-06
3.811768431e-06
3.99964327e-06
3.99960684e-06
3.999575967e-06
3.999548715e-06
3.999523175e-06
3.999499589e-06
3.999478011e-06
3.999459911e-06
3.999448291e-06
3.999437507e-06
3.999429358e-06
3.7876163e-06
3.978140359e-06
3.991315816e-06
3.995379562e-06
3.997076612e-06
3.997977645e-06
3.998511644e-06
3.998853675e-06
3.999120777e-06
3.999388716e-06
3.999634097e-06
3.999696712e-06