/*--------------------------------*- C++ -*----------------------------------*\
  =========                 |
  \\      /  F ield         | OpenFOAM: The Open Source CFD Toolbox
   \\    /   O peration     | Website:  https://openfoam.org
    \\  /    A nd           | Version:  dev
     \\/     M anipulation  |
\*---------------------------------------------------------------------------*/
FoamFile
{
    version     2.0;
    format      ascii;
    class       volScalarField;
    location    "0.024";
    object      p;
}
// * * * * * * * * * * * * * * * * * * * * * * * * * * * * * * * * * * * * * //

dimensions      [0 2 -2 0 0 0 0];

internalField   nonuniform List<scalar> 
197600
(
0.02772734271
0.02719195155
0.02762639865
0.02714471868
0.02719665967
0.02759098365
0.02700593211
0.02714215802
0.0271998865
0.02753221804
0.02691038565
0.02700543539
0.02713955349
0.02719932858
0.02749220264
0.02681555274
0.02691012652
0.02700475704
0.02713547026
0.02719726032
0.02745100262
0.02672734567
0.02681545943
0.02690972045
0.0270037653
0.02713090658
0.02719458429
0.02741617034
0.02664295614
0.02672729415
0.02681527826
0.02690912284
0.02700258363
0.02712577279
0.02719040734
0.0273842093
0.02656189875
0.0266429294
0.02672718706
0.02681501617
0.02690835147
0.02700118176
0.02712031287
0.02718582325
0.02735577241
0.02648381255
0.02656188264
0.02664287313
0.02672704111
0.02681467646
0.02690742953
0.02699961573
0.02711466215
0.02718066013
0.02733019381
0.02640847922
0.02648380177
0.02656184812
0.02664279393
0.02672685323
0.0268142677
0.02690638554
0.0269978883
0.02710892567
0.02717524715
0.02730728359
0.02633576251
0.02640847061
0.02648377818
0.02656179962
0.02664269076
0.02672662877
0.02681379628
0.0269052509
0.02699603303
0.02710322116
0.02716963305
0.02728676855
0.0262655652
0.02633575424
0.02640845141
0.02648374466
0.02656173652
0.02664256615
0.02672637124
0.02681327365
0.02690405749
0.02699407621
0.02709766845
0.02716395716
0.02726844115
0.02619781495
0.02626555607
0.02633573562
0.02640842386
0.02648370078
0.02656166008
0.02664242201
0.02672608537
0.02681270911
0.02690282856
0.02699206456
0.02709233152
0.02715833529
0.02725211885
0.02613245489
0.02619780403
0.02626553553
0.02633570869
0.02640838762
0.02648364721
0.02656157135
0.02664226071
0.02672577591
0.0268121129
0.02690158051
0.02699003638
0.02708724537
0.02715286081
0.02723763439
0.02606943968
0.02613244136
0.02619777963
0.02626550564
0.02633567309
0.02640834308
0.02648358464
0.0265614716
0.02664208483
0.02672544799
0.02681149491
0.02690033167
0.02698802801
0.02708243706
0.0271476222
0.02722484153
0.02600873265
0.02606942275
0.0261324114
0.02619774397
0.026265466
0.0263356291
0.02640829073
0.02648351375
0.02656136225
0.02664189713
0.02672510683
0.02681086526
0.02689909826
0.026986078
0.02707794552
0.02714269582
0.02721361281
0.02595030486
0.02600871148
0.02606938555
0.02613236747
0.02619769659
0.02626541684
0.02633557709
0.026408231
0.02648343539
0.02656124483
0.02664170044
0.02672475771
0.02681023394
0.02689789791
0.02698420423
0.0270737995
0.02713814667
0.0272038469
0.02589413414
0.02595027856
0.02600866531
0.02606933086
0.02613230904
0.02619763775
0.02626535852
0.0263355174
0.02640816447
0.02648335042
0.02656112082
0.02664149769
0.02672440594
0.02680960928
0.02689674115
0.02698242622
0.02707002484
0.02713402062
0.02719545621
0.02584020312
0.02589410178
0.02595022157
0.02600859728
0.02606925808
0.02613223641
0.02619756778
0.02626529129
0.02633545043
0.02640809173
0.02648325992
0.02656099175
0.02664129184
0.02672405653
0.02680900403
0.02689564349
0.02698076073
0.02706663583
0.02713035672
0.02718836834
0.02578849905
0.02584016373
0.02589403203
0.02595013743
0.0260085067
0.02606916757
0.02613214994
0.02619748694
0.02626521554
0.02633537663
0.02640801343
0.02648316505
0.02656085928
0.02664108584
0.02672371473
0.02680842514
0.02689461842
0.02697922966
0.0270636459
0.02712718594
0.02718251949
0.02573901122
0.02578845168
0.02584007922
0.02589392884
0.02595002533
0.026008394
0.02606905972
0.02613204992
0.02619739562
0.02626513165
0.02633529651
0.02640793026
0.02648306678
0.02656072521
0.02664088257
0.02672338512
0.02680787892
0.02689367752
0.02697785084
0.02706106508
0.0271245366
0.02717786712
0.0256917301
0.02573895503
0.02578835048
0.02583995393
0.02589379129
0.02594988581
0.02600825963
0.02606893487
0.02613193677
0.02619729421
0.02626504007
0.02633521057
0.02640784299
0.02648296619
0.02656059129
0.02664068459
0.02672307218
0.02680737255
0.0268928307
0.02697664
0.02705890224
0.0271224234
0.02717435051
0.02564664382
0.02569166439
0.02573883536
0.02578820007
0.02583978683
0.02589362001
0.02594971936
0.02600810399
0.02606879351
0.02613181092
0.02619718317
0.02626494126
0.02633511938
0.02640775223
0.02648286486
0.0265604594
0.02664049425
0.02672278021
0.02680691254
0.02689208679
0.02697561027
0.02705716264
0.02712088333
0.02717198738
0.02560373635
0.02564656825
0.02569152487
0.02573865701
0.02578799933
0.02583957863
0.02589341555
0.02594952647
0.02600792764
0.02606863614
0.02613167288
0.02619706297
0.02626483574
0.02633502349
0.02640765805
0.0264827635
0.02656033172
0.02664031361
0.02672251291
0.02680650473
0.02689145327
0.02697477248
0.02705585317
0.02711988178
0.02717081438
0.02556298287
0.02560365105
0.02564640816
0.02569131629
0.02573841881
0.02578774903
0.02583932992
0.02589317844
0.02594930777
0.02600773118
0.02606846334
0.02613152318
0.02619693415
0.02626472402
0.02633492348
0.02640756152
0.02648266206
0.02656021
0.02664014541
0.02672227359
0.02680615413
0.02689093645
0.02697413483
0.02705497639
0.02711937052
0.02717080857
0.02552434624
0.02556288872
0.02560347073
0.02564616794
0.02569103744
0.0257381215
0.02578744976
0.0258390413
0.02589290943
0.02594906396
0.02600751528
0.02606827574
0.02613136243
0.02619679725
0.02626460666
0.02633481997
0.0264074642
0.02648256163
0.0265600951
0.02663999355
0.02672206538
0.02680586497
0.02689054126
0.02697370347
0.02705453319
0.02711936617
0.02717196771
0.02548777123
0.02552424518
0.02556269003
0.02560319891
0.02564584642
0.02569068895
0.02573776566
0.02578710217
0.02583871358
0.02589260932
0.02594879584
0.0260072807
0.02606807405
0.02613119126
0.02619665288
0.02626448425
0.02633471358
0.02640736666
0.02648246355
0.02655998646
0.02663985946
0.02672189084
0.02680564066
0.02689027157
0.02697348229
0.02705452609
0.02711987105
0.02717432055
0.02545317925
0.02548766663
0.02552403217
0.02556238883
0.02560283456
0.02564544393
0.02569027132
0.02573735191
0.0257867071
0.02583834764
0.02589227902
0.02594850429
0.02600702826
0.02606785901
0.02613101034
0.02619650165
0.02626435738
0.02633460492
0.02640726934
0.02648236877
0.02655988592
0.02663974342
0.02672175199
0.02680548382
0.02689012956
0.02697347299
0.02705495568
0.02712086281
0.02717782986
0.02542046105
0.02545307639
0.02548744634
0.02552370688
0.02556198428
0.02560237748
0.02564496082
0.02568978504
0.02573688108
0.02578626551
0.02583794454
0.02589191955
0.02594819028
0.02600675885
0.02606763141
0.02613082039
0.0261963442
0.02626422664
0.02633449459
0.02640717289
0.02648227776
0.02655979515
0.026639647
0.02672165049
0.02680539616
0.02689011695
0.02697367587
0.02705581874
0.02712239016
0.02718247336
0.02538946948
0.02542036774
0.02545285985
0.02548710647
0.02552326874
0.02556147535
0.02560182771
0.02564439731
0.02568923086
0.02573635414
0.02578577852
0.0258375054
0.02589153205
0.02594785487
0.02600647343
0.02606739212
0.02613062216
0.02619618121
0.02626409265
0.02633438318
0.02640707783
0.02648219199
0.02655971462
0.02663957118
0.02672158742
0.02680537861
0.02689023348
0.02697408903
0.02705711446
0.02712449252
0.02718831415
0.025360011
0.0253893967
0.02542017124
0.02545252059
0.02548664687
0.02552271546
0.02556086153
0.02560118497
0.02564375389
0.02568860962
0.02573577221
0.02578524737
0.02583703152
0.02589111775
0.0259474992
0.02600617302
0.02606714203
0.02613041643
0.02619601335
0.02626395603
0.02633427128
0.02640698469
0.02648211227
0.02655964553
0.02663951669
0.02672156338
0.02680543141
0.02689047747
0.02697470848
0.02705884082
0.0271271306
0.02719539382
0.02533183526
0.02535997379
0.02538924331
0.02541985523
0.02545205904
0.02548606334
0.02552204569
0.02556014178
0.0256004493
0.02564303114
0.02568792238
0.02573513659
0.02578467348
0.02583652431
0.02589067798
0.02594712448
0.02600585871
0.02606688208
0.02613020401
0.02619584133
0.02626381738
0.02633415944
0.02640689404
0.0264820386
0.02655958832
0.02663948397
0.02672157849
0.02680555325
0.02689084791
0.02697552837
0.02706099049
0.02713029067
0.02720377659
0.025304629
0.0253318539
0.02535989506
0.02538898279
0.02541942095
0.02545146826
0.02548535328
0.02552125713
0.02555931531
0.02559962077
0.02564222987
0.02568717036
0.02573444875
0.02578405842
0.02583598531
0.02589021421
0.02594673204
0.02600553165
0.02606661326
0.02612998574
0.02619566585
0.02626367733
0.02633404821
0.02640680637
0.02648197149
0.02655954337
0.02663947314
0.02672163233
0.02680574316
0.02689134015
0.02697654052
0.02706355853
0.02713394411
0.02721353476
0.02527799604
0.02530472959
0.02533189256
0.02535973438
0.02538861761
0.02541885761
0.0254507438
0.02548451255
0.02552034776
0.02555838133
0.02559869968
0.02564135106
0.02568635502
0.02573371039
0.02578340392
0.02583541622
0.02588972797
0.02594632324
0.02600519303
0.0260663366
0.02612976249
0.02619548765
0.02626353648
0.02633393809
0.02640672213
0.02648191126
0.02655951083
0.02663948407
0.02672172392
0.0268059984
0.02689194924
0.02697773415
0.027066536
0.02713806007
0.02722475605
0.02525145828
0.02527821576
0.0253049402
0.02533189179
0.02535949591
0.02538813149
0.0254181581
0.02544987883
0.02548353721
0.02551931543
0.02555733928
0.02559768651
0.02564039597
0.02568547804
0.02573292338
0.0257827119
0.02583481883
0.02588922094
0.02594589956
0.02600484412
0.02606605316
0.02612953513
0.02619530745
0.02626339542
0.02633382956
0.02640664172
0.02648185814
0.02655949071
0.02663951624
0.02672185188
0.02680631515
0.02689266947
0.02697909625
0.02706991298
0.02714259948
0.02723754163
0.02522443599
0.0252518433
0.02527866986
0.02530517659
0.02533185848
0.02535915604
0.02538751374
0.02541731182
0.02544886668
0.02548242306
0.02551815814
0.02555618875
0.02559658206
0.02563936612
0.02568454134
0.0257320898
0.02578198442
0.02583419511
0.02588869486
0.02594546253
0.02600448623
0.02606576402
0.02612930455
0.02619512597
0.02626325473
0.02633372309
0.02640656544
0.02648181227
0.02655948282
0.02663956892
0.02672201424
0.02680669049
0.02689349302
0.02698061113
0.02707367605
0.02714751668
0.02725201901
0.02519622949
0.02522504426
0.02525262564
0.02527924746
0.02530544877
0.0253317577
0.02535869895
0.0253867484
0.02541630813
0.02544770009
0.02548116595
0.02551687409
0.02555492972
0.02559538745
0.02563826336
0.02568354714
0.02573121197
0.02578122375
0.02583354715
0.02588815159
0.02594501376
0.02600412069
0.02606547031
0.02612907169
0.02619494394
0.02626311499
0.02633361909
0.02640649357
0.02648177367
0.02655948681
0.02663964107
0.02672220891
0.02680711889
0.02689441138
0.02698226108
0.02707781098
0.02715274669
0.02726833437
0.02516602619
0.02519713252
0.02522626506
0.02525367523
0.02527996293
0.0253057112
0.02533156767
0.02535810165
0.02538581944
0.02541513547
0.02544637177
0.02547976192
0.02551546186
0.02555356249
0.02559410417
0.02563708983
0.02568249792
0.02573029244
0.02578043231
0.02583287714
0.02588759307
0.0259445549
0.02600374892
0.02606517316
0.02612883743
0.02619476209
0.02626297675
0.02633351795
0.02640642629
0.02648174226
0.02655950215
0.02663973136
0.02672243286
0.02680759441
0.0268954146
0.02698402424
0.02708229173
0.02715821331
0.02728665536
0.02513285769
0.02516731396
0.02519892769
0.02522794948
0.02525499318
0.02528074566
0.02530593005
0.02533125563
0.02535734026
0.02538470916
0.02541378206
0.02544487453
0.02547820736
0.02551392042
0.02555208788
0.02559273413
0.02563584808
0.02568139646
0.02572933399
0.0257796127
0.02583218744
0.02588702135
0.02594408769
0.02600337234
0.02606487375
0.02612860273
0.02619458113
0.02626284053
0.02633342
0.02640636374
0.02648171788
0.02655952817
0.02663983826
0.02672268262
0.026808111
0.02689649139
0.02698588421
0.02708709024
0.02716382763
0.02730716454
0.02509564022
0.02513463684
0.02516984777
0.02520145088
0.02523008449
0.02525651128
0.02528154991
0.02530606214
0.02533078838
0.02535638901
0.02538339955
0.02541223607
0.02544320157
0.02547649919
0.02551224937
0.02555050719
0.02559127973
0.02563454103
0.02568024584
0.02572833961
0.02577876771
0.02583148051
0.02588643855
0.02594361391
0.02600299241
0.02606457323
0.02612836848
0.02619440177
0.02626270684
0.02633332557
0.026406306
0.02648170027
0.02655956402
0.02663995972
0.02672295499
0.0268086613
0.02689762852
0.02698782077
0.02709216729
0.02716949633
0.0273300694
0.02505301636
0.02509805108
0.02513811459
0.02517346284
0.02520466687
0.02523257574
0.02525814878
0.02528232484
0.02530605628
0.02533012782
0.02535522113
0.02538187223
0.02541048608
0.02544134669
0.02547463503
0.02551044894
0.02554882235
0.02558974383
0.02563317201
0.02567904947
0.02572731256
0.02577790027
0.02583075893
0.02588584685
0.02594313537
0.02600261061
0.0260642728
0.02612813563
0.0261942247
0.02626257618
0.02633323493
0.02640625309
0.02648168906
0.02655960876
0.02664009381
0.0267232459
0.02680923886
0.02689881006
0.02698981658
0.02709749565
0.02717510388
0.02735564328
0.02500378706
0.0250562199
0.02510271633
0.02514312358
0.02517808066
0.02520845748
0.02523533806
0.02525980971
0.02528299999
0.02530586322
0.02532923671
0.02535380936
0.02538010935
0.02540852135
0.02543930454
0.02547261335
0.02550852015
0.02554703596
0.02558812989
0.02563174477
0.02567781106
0.0257262563
0.0257770135
0.02583002539
0.02588524854
0.02594265396
0.02600222846
0.02606397365
0.02612790509
0.02619405061
0.02626244899
0.02633314831
0.02640620496
0.02648168383
0.02655966125
0.02664023849
0.02672355075
0.0268098374
0.0269000254
0.02699183333
0.02710304027
0.02718051018
0.02738407588
0.02494546895
0.02500803459
0.02506235787
0.02510948836
0.02514953847
0.02518356568
0.02521270583
0.02523823221
0.02526145025
0.025283501
0.02530542735
0.02532807418
0.02535212685
0.0253780937
0.02540633222
0.02543707085
0.02547043362
0.02550646489
0.02554515133
0.02558644188
0.02563026349
0.02567653467
0.02572517453
0.02577611066
0.02582928268
0.02588464593
0.02594217157
0.02600184747
0.02606367697
0.02612767777
0.02619388015
0.02626232572
0.0263330659
0.02640616154
0.02648168406
0.02655972035
0.02664039114
0.02672386504
0.02681044427
0.02690125734
0.0269938347
0.02710873778
0.02718566645
0.02741603314
0.02487835724
0.0249509604
0.0250160081
0.02507133735
0.02511817545
0.02515719357
0.02518975284
0.02521725884
0.02524119779
0.02526294925
0.02528376347
0.02530469399
0.02532660237
0.02535014749
0.02537580952
0.0254039104
0.02543464268
0.02546809647
0.02550428601
0.02554317252
0.0255846844
0.02562873278
0.02567522463
0.02572407119
0.02577519515
0.02582853368
0.02588404142
0.02594169013
0.02600146917
0.02606338395
0.02612745455
0.02619371397
0.02626220677
0.02633298789
0.02640612267
0.02648168918
0.02655978471
0.026640549
0.02672418411
0.02681105095
0.02690248953
0.02699578256
0.02711446884
0.02719024497
0.02745086221
0.02479438266
0.02488588312
0.02496123082
0.02502773832
0.02508286161
0.02512857387
0.02516587115
0.02519645519
0.02522197616
0.02524404432
0.02526419958
0.0252836949
0.02530360822
0.02532478204
0.02534784708
0.02537324274
0.02540124931
0.02543201858
0.02546560379
0.02550198738
0.0255411044
0.02558286263
0.02562715772
0.02567388563
0.02572295039
0.02577427052
0.02582778135
0.02588343742
0.02594121158
0.0260010951
0.02606309576
0.02612723633
0.02619355269
0.02626209253
0.02633291439
0.02640608819
0.02648169856
0.02655985296
0.02664070984
0.02672450298
0.02681164756
0.02690370372
0.02699762983
0.02712011427
0.02719441697
0.0274920595
0.02470402164
0.02480418182
0.02489879795
0.02497635786
0.02504277451
0.02509668869
0.02514040319
0.02517533298
0.02520347016
0.02522666341
0.02524669345
0.02526510066
0.02528322839
0.02530211428
0.02532257826
0.02534520343
0.02537038158
0.02539834436
0.02542919882
0.02546295886
0.02549957397
0.02553895268
0.02558098238
0.02562554378
0.02567252261
0.02572181646
0.02577334044
0.02582702874
0.0258828364
0.02594073788
0.02600072677
0.02606281356
0.02612702396
0.0261933969
0.02626198335
0.02633284551
0.02640605787
0.02648171154
0.0265599237
0.02664087064
0.02672481628
0.02681222397
0.02690488383
0.02699934986
0.02712556951
0.02719708903
0.02753207276
0.02457089534
0.0247191371
0.02482128678
0.02491810899
0.02499570445
0.0250608371
0.02511245788
0.02515336013
0.02518531195
0.02521056201
0.02523114331
0.02524897468
0.02526555469
0.02528228032
0.02530016214
0.02531995732
0.02534219751
0.02536721687
0.02539519326
0.02542618551
0.02546016644
0.02549705186
0.02553672388
0.02557905002
0.02562389689
0.02567114083
0.02572067391
0.02577240868
0.02582627893
0.02588224083
0.02594027098
0.0260003657
0.02606253851
0.02612681827
0.02619324717
0.02626187955
0.02633278132
0.02640603148
0.02648172739
0.02655999544
0.02664102856
0.02672511927
0.02681277081
0.02690600702
0.02700090887
0.02713069959
0.02719915421
0.02759083596
0.02446718415
0.02459781167
0.02473855996
0.02484597233
0.02494264254
0.02501894972
0.0250814678
0.02512978803
0.02516710087
0.02519551049
0.02521750693
0.02523525933
0.02525069221
0.02526544392
0.02528078824
0.02529770254
0.02531689041
0.02533881363
0.02536374247
0.02539179616
0.02542298277
0.02545723281
0.0254944283
0.02553442538
0.02557707257
0.02562222335
0.02566974578
0.0257195274
0.02577147909
0.02582553504
0.0258816532
0.02593981284
0.02600001338
0.02606227171
0.02612662008
0.02619310406
0.02626178144
0.02633272186
0.02640600873
0.0264817454
0.02656006671
0.02664118101
0.02672540625
0.0268132778
0.02690704192
0.02700230314
0.02713525961
0.02719971089
0.02762624894
0.02414856195
0.02450456895
0.02462744577
0.0247689899
0.02487691569
0.02497213336
0.0250455233
0.02510419505
0.02514824401
0.02518125102
0.02520563187
0.02522405083
0.02523876845
0.02525178787
0.02526468052
0.02527867636
0.02529469389
0.02531335278
0.0253350402
0.02535995557
0.02538815595
0.02541959678
0.02545416584
0.02549171168
0.02553206538
0.02557505758
0.02562052988
0.02566834322
0.02571838174
0.02577055562
0.02582480024
0.02588107601
0.02593936537
0.02599967129
0.02606201426
0.02612643016
0.02619296806
0.02626168928
0.02633266715
0.02640598934
0.02648176484
0.02656013608
0.02664132508
0.02672567227
0.02681373567
0.02690795713
0.02700347886
0.02713934014
0.02719648292
0.02772719227
0.02431889862
0.02428310751
0.02452497273
0.02466878349
0.02480680573
0.02491391528
0.02500584414
0.02507485405
0.02512847794
0.02516735558
0.02519542122
0.02521534351
0.02522993492
0.02524155502
0.02525210269
0.0252631605
0.02527588902
0.02529109884
0.02530932527
0.02533087004
0.02535585699
0.0253842783
0.02541603589
0.02545097498
0.02548891157
0.02552965289
0.02557301317
0.0256188235
0.02566693909
0.02571724184
0.02576964223
0.02582407769
0.02588051173
0.0259389305
0.02599934085
0.02606176722
0.02612624925
0.02619283968
0.02626160333
0.0263326172
0.02640597301
0.02648178499
0.0265602021
0.02664145808
0.02672591263
0.02681413363
0.02690872353
0.02700446528
0.02714194303
0.0271917747
0.02436418382
0.02435971709
0.02441680548
0.02396402101
0.02456855155
0.02471635976
0.02485239136
0.02495615246
0.02504310161
0.0251062814
0.02515373156
0.02518662509
0.02520919527
0.02522433739
0.02523494594
0.02524335231
0.0252514878
0.02526081118
0.02527237101
0.02528688812
0.02530479455
0.02532630083
0.02535145132
0.02538017182
0.02541231064
0.02544767132
0.02548603865
0.02552719771
0.02557094793
0.02561711159
0.02566553954
0.02571611271
0.02576874294
0.02582337055
0.02587996281
0.02593851006
0.02599902346
0.0260615316
0.02612607808
0.02619271935
0.02626152381
0.02633257198
0.02640595944
0.02648180514
0.02656026344
0.02664157772
0.02672612254
0.02681446443
0.02690931809
0.02700514182
0.02714450284
0.0244376634
0.02429057708
0.02409034019
0.02407727442
0.0240362572
0.02395120783
0.02462062939
0.02477260116
0.02490449656
0.02500290077
0.02508310734
0.02513908352
0.02517933125
0.02520553059
0.02522216531
0.02523227601
0.02523881458
0.02524405359
0.02524985554
0.02525754962
0.02526807971
0.02528203989
0.02529975383
0.02532133538
0.02534674716
0.02537584811
0.02540843376
0.02544426744
0.02548310468
0.02552471031
0.02556887096
0.02561540177
0.02566415085
0.02571499943
0.02576786178
0.02582268195
0.02587943165
0.0259381059
0.02599872047
0.02606130837
0.0261259173
0.02619260751
0.0262614509
0.02633253147
0.02640594831
0.02648182465
0.02656031873
0.02664168184
0.02672629838
0.02681472012
0.02690972053
0.02700563773
0.02450683096
0.0243358426
0.02414581985
0.0240577568
0.02389840083
0.02373104778
0.02396044377
0.02386498273
0.02468600459
0.02483625945
0.0249622981
0.02505325939
0.02512499295
0.02517249185
0.02520462164
0.02522354248
0.02523391254
0.0252388526
0.02524130596
0.02524349643
0.0252470878
0.02525331912
0.02526298194
0.02527654114
0.02529420312
0.02531598182
0.02534175709
0.02537132174
0.02540442011
0.02544077751
0.02548012244
0.02552220189
0.02556679173
0.02561370192
0.0256627794
0.02571390708
0.02576700274
0.025822015
0.02587892061
0.02593771976
0.02599843317
0.02606109846
0.02612576756
0.02619250454
0.0262613848
0.02633249562
0.02640593936
0.02648184286
0.02656036828
0.02664176846
0.02672643483
0.02681489728
0.02690997729
0.02458849942
0.02439235131
0.02425797097
0.02412109602
0.02398439786
0.02370055475
0.02354379633
0.02371384204
0.0238171198
0.0237928658
0.02476143717
0.02490692392
0.02502463985
0.02510617554
0.02516781568
0.02520568785
0.02522893155
0.02524013147
0.02524402656
0.02524381649
0.02524226808
0.02524151639
0.02524310456
0.02524806967
0.02525705623
0.02527038789
0.02528814961
0.02531025368
0.02533649775
0.0253666102
0.02540028666
0.02543721705
0.02547710569
0.0255196842
0.02556472007
0.02561202007
0.02566143165
0.02571284078
0.02576616979
0.02582137271
0.02587843198
0.02593735335
0.02599816279
0.02606090273
0.02612562943
0.02619241079
0.02626132565
0.02633246441
0.02640593228
0.02648185914
0.02656040871
0.02664183557
0.02672653498
0.02681498865
0.02468027621
0.02447704642
0.0243573199
0.02423786358
0.02408586881
0.02393281822
0.02346604268
0.02333873139
0.02352706016
0.02355673838
0.02372791977
0.02374259312
0.02484636424
0.02498359782
0.02509030127
0.02516053557
0.02521057087
0.02523783525
0.0252515857
0.02525477509
0.02525213385
0.02524681171
0.02524146836
0.02523802557
0.02523783775
0.02524176927
0.02525029316
0.02526358575
0.02528160768
0.02530416995
0.02533098975
0.02536173384
0.02539605229
0.02543360295
0.02547406899
0.02551716952
0.0255626661
0.02561036439
0.02566011409
0.02571180558
0.02576536682
0.02582075805
0.02587796795
0.02593700828
0.02599791051
0.02606072201
0.02612550346
0.02619232659
0.02626127359
0.02633243773
0.0264059269
0.02648187281
0.02656044045
0.02664188338
0.02672658325
0.02478280616
0.02457730582
0.02447569475
0.02435626471
0.02422106094
0.02406235454
0.02391030929
0.0232070168
0.02308450591
0.02332569282
0.02334051534
0.02348273113
0.02365677961
0.0237154174
0.02493874097
0.0250649107
0.02515793232
0.02521506176
0.02525221182
0.02526807996
0.02527192299
0.0252669754
0.02525790911
0.02524766287
0.02523876571
0.02523291489
0.0252312396
0.02523440103
0.02524269599
0.02525614991
0.02527459906
0.02529775493
0.02532525754
0.02535671569
0.02539173778
0.02542995329
0.02547102767
0.02551467054
0.02556064013
0.02560874312
0.02565883319
0.02571080648
0.02576459764
0.02582017388
0.02587753065
0.02593668609
0.0259976774
0.02606055705
0.02612539014
0.02619225224
0.02626122868
0.02633241564
0.02640592282
0.02648188334
0.02656046351
0.02664190605
0.02489494589
0.0246931737
0.02460657521
0.02449676766
0.02436120514
0.02421773968
0.0240620259
0.02390905858
0.02291794251
0.02280454447
0.02307883041
0.02311323024
0.02327168473
0.02341031345
0.02361181108
0.02371018618
0.02503681754
0.02514923162
0.02522610526
0.02526849534
0.02529167203
0.0252955774
0.02528930695
0.02527626645
0.02526094803
0.02524613925
0.02523404196
0.02522612524
0.02522328445
0.02522596506
0.02523428075
0.0252481053
0.02526715253
0.02529103812
0.02531932921
0.02535158129
0.02538736552
0.02542628719
0.02546799767
0.0255122003
0.0255586526
0.0256071645
0.02565759534
0.02570984838
0.02576386595
0.02581962294
0.02587712209
0.02593638821
0.02599746449
0.02606040853
0.02612528993
0.02619218793
0.02626119116
0.02633239787
0.02640592011
0.02648189131
0.0265604742
0.02501541712
0.0248207548
0.02475085582
0.0246471776
0.02451970963
0.0243850466
0.02424280425
0.0240859728
0.02393338991
0.02259459039
0.02249340582
0.02280662719
0.02284299776
0.02304995327
0.02318787629
0.02336785732
0.02359141394
0.0237316463
0.02513877182
0.02523450922
0.02529325988
0.02531946856
0.0253278883
0.02531952323
0.02530313824
0.02528232772
0.02526107485
0.0252420738
0.02522719705
0.02521761623
0.02521396799
0.02521647828
0.02522507632
0.02523948629
0.02525930382
0.02528405389
0.02531323627
0.02534635846
0.02538295943
0.02542262468
0.02546499546
0.02550977205
0.02555671404
0.02560563671
0.02565640684
0.02570893605
0.0257631753
0.02581910783
0.02587674414
0.02593611601
0.0259972727
0.0260602771
0.02612520315
0.02619213402
0.02626116081
0.02633238472
0.02640591856
0.02648189465
0.0251410716
0.02495788654
0.02490550119
0.02480926398
0.02468997747
0.02456722946
0.02443465751
0.02429119765
0.02413320167
0.02398281291
0.02223318396
0.02214723578
0.02250313822
0.02254582659
0.02278744861
0.02295256819
0.02314300063
0.02334772232
0.0235981272
0.02377615468
0.02524277739
0.02531881834
0.0253577455
0.02536667743
0.02535982732
0.02533913573
0.02531290083
0.02528462437
0.02525802135
0.02523535362
0.02521818467
0.02520737907
0.02520330849
0.02520597455
0.02521512401
0.02523033638
0.02525109514
0.02527684117
0.02530701328
0.02534107707
0.02537854464
0.02541898651
0.0254620378
0.02550739916
0.02555483489
0.02560416784
0.02565527381
0.02570807407
0.02576252907
0.02581863103
0.02587639856
0.02593587068
0.02599710288
0.02606016323
0.02612513032
0.02619209037
0.02626113816
0.02633237594
0.02640591732
0.02526929948
0.02510214087
0.02506838367
0.02498031987
0.02487223473
0.0247618314
0.02463945925
0.02450626455
0.02436337622
0.02420505319
0.02405587515
0.02183047246
0.02176414334
0.02216358155
0.02221947621
0.02249764121
0.0226772829
0.02290493642
0.02311776781
0.02335403431
0.02362730445
0.0238454337
0.02534681736
0.02539999194
0.025417895
0.02540879481
0.02538650775
0.02535373886
0.02531811546
0.02528301207
0.02525163461
0.02522590276
0.02520698577
0.02519543362
0.02519134625
0.02519450409
0.02520447722
0.02522070766
0.02524257477
0.02526944302
0.02530069761
0.02533576867
0.02537414732
0.02541539395
0.02545914173
0.025505095
0.02555302551
0.02560276577
0.02565420219
0.02570726683
0.02576193046
0.02581819482
0.02587608698
0.02593565338
0.02599695571
0.02606006759
0.02612507134
0.02619205769
0.02626112279
0.02633237119
0.02539652392
0.02525103959
0.02523642392
0.02515836214
0.02506356779
0.02496661832
0.02485647252
0.02473399341
0.02460180439
0.02446062693
0.02430131983
0.02415441491
0.02138410668
0.02134220463
0.02178684829
0.02185935162
0.02217838212
0.0223735231
0.02262890747
0.02287339488
0.02312009598
0.02338304791
0.0236815557
0.02394010021
0.0254482289
0.02547625397
0.02547198117
0.02544455712
0.02540706272
0.02536275309
0.02531842806
0.02527723307
0.02524183248
0.02521369881
0.02519362462
0.02518182883
0.02517814304
0.02518213287
0.02519320051
0.02521066018
0.02523379643
0.02526190619
0.02529432889
0.02533046629
0.0253697944
0.02541186863
0.02545632429
0.02550287282
0.02555129605
0.02560143815
0.02565319765
0.02570651849
0.02576138247
0.02581780131
0.02587581087
0.02593546501
0.02599683205
0.02605999015
0.02612502714
0.02619203543
0.02626111485
0.02551969379
0.02540206087
0.02540664335
0.02534063468
0.02526135627
0.02517934479
0.02508227186
0.0249734067
0.02485320677
0.02472234875
0.02458276211
0.02442325059
0.02427861568
0.02089193956
0.02087947
0.02137109289
0.02146408779
0.0218248317
0.02203985857
0.02232444465
0.02259144051
0.02286958084
0.02314520864
0.02343717287
0.02376106507
0.02405997161
0.02554424633
0.02554546429
0.02551842647
0.02547283646
0.02542070208
0.02536562536
0.02531356591
0.0252671788
0.02522857047
0.02519876932
0.02517816128
0.02516664156
0.02516378107
0.02516894146
0.02518136887
0.02520026111
0.02522481868
0.0252542805
0.02528794874
0.02532520398
0.02536551334
0.02540843228
0.02545360245
0.02550074565
0.02554965636
0.02560019232
0.02565226559
0.02570583294
0.02576088784
0.02581745247
0.02587557145
0.02593530667
0.02599673193
0.02605993206
0.02612499697
0.02619202415
0.02563706691
0.02555404751
0.02557374179
0.02552403783
0.02546251331
0.02539705684
0.02531527468
0.02522083927
0.02511539806
0.02499778283
0.02486815186
0.02473078582
0.02457103222
0.02442832517
0.02035234864
0.02037436555
0.02091471447
0.02103210315
0.02143558144
0.02167181103
0.02199006444
0.02227941934
0.02258197218
0.02288902481
0.02319508019
0.02351561887
0.02386572748
0.02420491975
0.02563205171
0.02560547352
0.0255557844
0.02549258524
0.02542678418
0.02536210313
0.02530336853
0.02525279899
0.02521189026
0.02518119039
0.02516069275
0.02514997511
0.02514836142
0.02515502384
0.0251690665
0.02518958392
0.02521570415
0.02524661838
0.02528160022
0.02532001656
0.0253613318
0.02540510656
0.0254509929
0.02549872617
0.02554811592
0.02559903526
0.02565141106
0.02570521376
0.02576044913
0.02581714987
0.02587537013
0.0259351785
0.02599665679
0.02605989241
0.02612498187
0.0257453545
0.02570004794
0.02573219787
0.02570523189
0.02566332132
0.02561660681
0.02555218314
0.02547477786
0.02538499659
0.02528284345
0.02516810284
0.0250402361
0.02490503008
0.02474481312
0.02460369071
0.01976473865
0.0198266079
0.020417034
0.0205621717
0.02100919335
0.02126841095
0.02162154102
0.02193631363
0.0222643373
0.02259596419
0.02293217365
0.02326835246
0.02361785142
0.02399531891
0.02437488319
0.02570892501
0.02565450322
0.02558267459
0.0255030332
0.02542492271
0.02535192694
0.02528778258
0.02523414295
0.02519188679
0.02516108563
0.02514134991
0.02513195706