/*--------------------------------*- C++ -*----------------------------------*\
  =========                 |
  \\      /  F ield         | OpenFOAM: The Open Source CFD Toolbox
   \\    /   O peration     | Website:  https://openfoam.org
    \\  /    A nd           | Version:  dev
     \\/     M anipulation  |
\*---------------------------------------------------------------------------*/
FoamFile
{
    version     2.0;
    format      ascii;
    class       volScalarField;
    location    "0.024";
    object      yPlus;
}
// * * * * * * * * * * * * * * * * * * * * * * * * * * * * * * * * * * * * * //

dimensions      [0 0 0 0 0 0 0];

internalField   uniform 0;

boundaryField
{
    defaultFaces
    {
        type            empty;
    }
    blade1
    {
        type            calculated;
        value           nonuniform List<scalar> 
340
(
1.20678896
1.185629426
1.168365011
1.153085809
1.136161431
1.118095165
1.099596282
1.080586654
1.060993532
1.040844292
1.020143714
0.9989029026
0.9771367474
0.9548202868
0.9319218447
0.9085382011
0.8847816481
0.8606916769
0.8363043064
0.81169567
0.7869639069
0.7621576006
0.7373705916
0.7127302105
0.6883181702
0.6642661694
0.6406752914
0.6176812943
0.5927552114
0.5670159494
0.5443554778
0.5246477257
0.5075553598
0.492775222
0.4801023067
0.4693582938
0.4603565523
0.4528528578
0.446608994
0.441204294
0.4366486073
0.4327453955
0.4293282731
0.4262627356
0.4230391841
0.4194475264
0.4153189139
0.4105306397
0.4049750872
0.3985622957
0.3912094973
0.3828392219
0.3733815039
0.3627577056
0.3509019108
0.3377715734
0.3233248713
0.3075062009
0.2902681203
0.2714895421
0.2512100172
0.2288354053
0.2053501647
0.1767514732
0.1528496157
0.0990383358
0.1055858921
0.1529321815
0.1680013586
0.3502991315
0.1921574813
0.1932184565
0.193655948
0.1947943518
0.1959749886
0.1973168445
0.1989330184
0.2008640238
0.2031561896
0.2058141922
0.2088122722
0.2121372016
0.2157611967
0.2196646096
0.2238240488
0.2282144501
0.2328616862
0.2377775073
0.2429875618
0.2485230997
0.2543934977
0.2605676375
0.2670925826
0.2740779713
0.2815954564
0.2896995483
0.2985479103
0.3082219523
0.3196989887
0.3330118046
0.3462998118
0.3591354151
0.3714276139
0.3831986933
0.3945497905
0.4055129693
0.4160997259
0.4262371945
0.4358686454
0.4448641363
0.4532757461
0.4608257765
0.4667698411
0.4714438011
0.4755869546
0.4790910807
0.4820978886
0.4848079332
0.487315716
0.4896353912
0.4918051784
0.4938627533
0.4958451673
0.4977627917
0.499623368
0.5014575288
0.5032949469
0.5051614431
0.5070801207
0.5090828509
0.5111830121
0.5134502131
0.5158152557
0.5186390015
0.5211436696
0.5259796225
0.5262428638
0.543235953
0.5213879655
0.6264497047
1.211458335
1.18940245
1.17714987
1.162269256
1.148539825
1.134779758
1.121361292
1.10819257
1.095310996
1.082711387
1.070399341
1.058368239
1.046620436
1.03515277
1.023957459
1.013031486
1.002368917
0.9919642313
0.9818106411
0.9718995866
0.9622240871
0.9527761758
0.9435473508
0.9345288947
0.9257122837
0.9170890745
0.9086514048
0.9003921723
0.8923000259
0.8843602737
0.8765661653
0.86890519
0.8613631485
0.8539318176
0.846595826
0.8393366966
0.8321413648
0.8250081909
0.8179195485
0.8108503678
0.8037859875
0.7967208579
0.7896637983
0.7825860027
0.7754469355
0.7682023162
0.7608162683
0.7532305257
0.7454369413
0.7374554838
0.7292350721
0.7206925228
0.711781882
0.7024383698
0.6925493682
0.6820073939
0.6707723683
0.6587501776
0.6458411667
0.6319488733
0.6168477696
0.6002880045
0.5820357569
0.5618381363
0.5392817494
0.5139621216
0.4855890333
0.4533417315
0.4162377111
0.3728353533
0.3187349279
0.2474142185
0.1375403363
0.1719183963
0.2801285765
0.3604831441
0.4265529711
0.4853816358
0.5410419905
0.5938695462
0.6440559508
0.6913679582
0.7353876963
0.776577519
0.8154064055
0.8519320428
0.8857951354
0.9165273946
0.9438055412
0.9674712864
0.9877284938
1.005263474
1.020382194
1.032814065
1.042120193
1.049107099
1.055926
1.063713926
1.079580151
1.088575812
1.191011045
1.180206342
1.184347632
1.183309809
1.184315465
1.188009056
1.192579672
1.19706863
1.200909071
1.203575569
1.204511216
1.20314986
1.199471612
1.1934499
1.18496304
1.173992165
1.160646695
1.145163281
1.127637612
1.108133811
1.086881415
1.063820688
1.040683039
1.015744797
0.9899956368
0.9645478509
0.9384337881
0.9118818842
0.8851454348
0.8581859333
0.8311930242
0.804923648
0.7794113199
0.7541177117
0.7292554967
0.704971322
0.6812850357
0.6581512907
0.6355856545
0.6135968239
0.5922453575
0.5715465767
0.5513008273
0.5316209573
0.5126905922
0.4943544372
0.4765879196
0.4594532907
0.4428828119
0.4268039265
0.4112663319
0.3962839149
0.3817777968
0.3677520983
0.3542287595
0.3412447919
0.3287722332
0.3167532544
0.3051968046
0.2940528576
0.2833258847
0.2729685621
0.2629107416
0.2531544525
0.2436742316
0.2344714139
0.2256120525
0.2171537142
0.2091669639
0.2016202684
0.1945788072
0.1881962601
0.1824562651
0.1771850145
0.1722621664
0.1675886114
0.1631560159
0.1589594355
0.1549238432
0.1512841311
0.1482787738
0.1461651443
0.1451576245
0.1453893466
0.1468727407
0.1495162342
0.1531341318
0.1574543528
0.1621781551
0.1670240753
0.171744122
0.1761340548
0.1800451506
0.1833943552
0.1861591652
0.1883327072
0.1899998967
0.1910594835
0.1919101759
0.1912574496
)
;
    }
    blade2
    {
        type            calculated;
        value           nonuniform List<scalar> 
340
(
0.7101893424
0.6840910144
0.6612079726
0.6359398469
0.6106349114
0.5843122206
0.5573668242
0.5296340481
0.5011589431
0.4718840469
0.4417607066
0.4107565233
0.378769902
0.3452467974
0.3099921801
0.2727614127
0.2331403753
0.1897231489
0.137366244
0.05719953564
0.1072319857
0.1555851899
0.1887316421
0.2139138105
0.2338156243
0.250022776
0.2632938504
0.2742238161
0.2844511794
0.293310951
0.3003378334
0.3063721516
0.3118543645
0.3172850462
0.3229795511
0.3292521464
0.3363350415
0.3444565415
0.3538146834
0.3646452369
0.3771391161
0.3917941028
0.4065712442
0.4204555905
0.4350973065
0.4505742275
0.466815015
0.4838435304
0.5016823615
0.5203628091
0.5399305536
0.5604429672
0.5819679676
0.604593198
0.6284281237
0.6536023285
0.6802633319
0.7085992391
0.7388425872
0.771279047
0.8062855998
0.8443377622
0.8861083721
0.9324150308
0.9848328202
1.044537649
1.118167957
1.199332936
1.358359542
1.353850363
0.2121576631
0.2102502173
0.2083468797
0.2065260271
0.2047058199
0.2029066485
0.2011028045
0.199269936
0.1973742366
0.1953554589
0.193159998
0.1907172352
0.1879480995
0.1847776907
0.1811282651
0.1769461677
0.1721736498
0.1667842348
0.1607638343
0.1541407132
0.1469168877
0.1391158865
0.1306913831
0.1215359649
0.1114230549
0.09987691196
0.08664856888
0.07061628264
0.04518506711
0.03534475416
0.06546129912
0.08417124791
0.09961798531
0.1133161455
0.1255768395
0.1374225584
0.1490761297
0.1609063406
0.173159721
0.1865214967
0.2010146112
0.2177506052
0.2349586676
0.2515287114
0.269857185
0.2905301272
0.3139023549
0.3403017194
0.3697116771
0.4018336535
0.435998255
0.4712309606
0.5063323845
0.5399405955
0.5705972735
0.5969574642
0.6178510066
0.6322737733
0.6394169775
0.6387784463
0.6300867752
0.6132366543
0.5885248949
0.5561568042
0.5173732687
0.4716361812
0.4320734924
0.3709166376
0.4196266355
0.4204114717
0.7249435654
0.7299442409
0.7368405645
0.7440687401
0.7506067208
0.7567299921
0.7626481132
0.7683618048
0.773846986
0.7791453622
0.7842976227
0.789319748
0.7942299033
0.79905435
0.8038160173
0.8085318713
0.8132184585
0.8178925936
0.8225685616
0.8272596272
0.8319806587
0.8367449768
0.8415669013
0.846460112
0.8514384579
0.8565181715
0.8617142305
0.8670388975
0.8725062506
0.8781259799
0.8839105633
0.8898706092
0.8960077928
0.902329175
0.9088503427
0.9155757448
0.9225072156
0.9296515077
0.9370188797
0.9446271028
0.9524704057
0.960548802
0.9688576021
0.9773987878
0.9861889159
0.9952334843
1.004535405
1.01408977
1.023889964
1.033906815
1.044123944
1.054535687
1.065135429
1.075934085
1.086868089
1.097889677
1.108976743
1.120091991
1.131205211
1.142266971
1.153167758
1.163816512
1.174141201
1.184046777
1.193367273
1.202066986
1.210042449
1.217112659
1.223103784
1.227905245
1.231234611
1.232514419
1.232149492
1.229425099
1.22397508
1.216008678
1.204825794
1.190155206
1.171912891
1.149123203
1.122307151
1.09082738
1.05504624
1.014698683
0.9699394948
0.9234767749
0.874051815
0.8207227987
0.763852956
0.7038375302
0.6403274492
0.5735491243
0.5038004568
0.4297084122
0.3417080031
0.2197776833
0.157035538
0.2975590503
0.3827983339
0.4077663122
0.367101502
0.3828699092
0.3921081466
0.4008186009
0.4064560974
0.4091388429
0.4104542666
0.4095897551
0.4076215938
0.4061259161
0.4065644689
0.409070159
0.4125577848
0.4156147212
0.4160796612
0.4106897103
0.3954575054
0.3665162364
0.3174206117
0.2335296545
0.1102337363
0.2595178665
0.3563288256
0.4249742081
0.4656083568
0.4851142237
0.4903121812
0.4804903297
0.4572694064
0.4266977234
0.3944205772
0.365622013
0.3434026805
0.329039305
0.3196410977
0.3095769029
0.2960187952
0.2733555896
0.2328197643
0.1686247414
0.1329477093
0.2363823182
0.3260460487
0.4041932863
0.4736580775
0.5350346476
0.5888957273
0.6352699602
0.6733015902
0.7036776083
0.7263120075
0.740609944
0.7475114095
0.7477322029
0.7418390601
0.7308173695
0.7156318494
0.6970745957
0.6759783605
0.6531133911
0.6291137681
0.6045402106
0.5798817551
0.5555777695
0.5319542565
0.5092290543
0.4875691364
0.4670877537
0.447855113
0.4298895251
0.4131821299
0.3976925603
0.3833606328
0.3701192394
0.3579020026
0.3466265416
0.3362070249
0.3265689925
0.3176444967
0.3093663403
0.3016649385
0.2944754333
0.2877646176
0.2814841112
0.2755832428
0.2700304494
0.2647942231
0.2598443475
0.2551525783
0.2506951977
0.2464485214
0.2423902304
0.2384981935
0.2347507267
0.2311275955
0.2276117886
0.2241892146
0.2208585336
0.2176454964
0.2144735829
)
;
    }
    blade3
    {
        type            calculated;
        value           nonuniform List<scalar> 
340
(
0.5885689686
0.5734235107
0.5556170975
0.5373974748
0.5179814795
0.4977045027
0.4765535899
0.4547579101
0.4316716813
0.4072547382
0.3820885768
0.355947206
0.3281398284
0.2984398524
0.2668239716
0.2319510217
0.193581904
0.1499821052
0.09839821972
0.08621057039
0.1295685906
0.1617242367
0.1849161288
0.2019910028
0.214479293
0.2235497888
0.2298357085
0.2343965289
0.238030161
0.2402771013
0.2422328959
0.2447515856
0.2477835141
0.2518876069
0.2572324169
0.2643215874
0.2729355899
0.2830960255
0.2953060829
0.3098693693
0.3268756368
0.3471345495
0.3676302982
0.3863363579
0.4056139578
0.4255177915
0.445543488
0.4654774279
0.4849992199
0.5037747131
0.5214505016
0.5376746747
0.5520670163
0.5641940728
0.5736240803
0.5799266532
0.5826861248
0.5816080609
0.5764171723
0.5668115625
0.55239096
0.532765712
0.5080557508
0.4775103902
0.4432093813
0.3993683515
0.3651031679
0.283644374
0.3319016848
0.2629802393
0.1885149278
0.1860280116
0.1834471432
0.1809329298
0.1783411929
0.1757857263
0.1731903981
0.1706093015
0.1680115018
0.1654121687
0.1628064761
0.1601950989
0.1575627361
0.1549017874
0.1521822156
0.1493664856
0.1464111648
0.1432653601
0.1398842969
0.1362438519
0.1323242977
0.1280540627
0.1233833151
0.1180407688
0.111821368
0.1042747618
0.0951742019
0.08331955865
0.06356448495
0.02654990256
0.06178712945
0.09196470527
0.1170098726
0.139972972
0.1617144572
0.1829064665
0.2038335611
0.2247436504
0.2457566746
0.2670872716
0.2886579139
0.3110385754
0.3310523615
0.3481742162
0.3651678169
0.3818441406
0.3982839096
0.4146289817
0.4309191776
0.4472001156
0.4635464146
0.4800171639
0.4966773563
0.513599894
0.5308529361
0.5484692387
0.5665517866
0.5852606014
0.604727104
0.6251188403
0.646629001
0.6695385525
0.6940922151
0.7209263125
0.7500138706
0.7839754995
0.8187221352
0.8731896607
0.9009112235
1.069308491
0.5995082939
0.6073914919
0.6132696019
0.6172781723
0.6206412237
0.6233119653
0.6250598713
0.6261802034
0.6269372273
0.6274903523
0.6276496951
0.627306334
0.6265691404
0.6256281207
0.6247446192
0.6240913682
0.6237767658
0.6238804329
0.6245055882
0.6259070725
0.6284191016
0.632359532
0.6379933257
0.6455082153
0.6550887261
0.6669995754
0.6814779694
0.6987121211
0.718713732
0.7413882591
0.766585248
0.7941010851
0.8235734056
0.8543757523
0.8856748568
0.9164515361
0.9454775215
0.9713332313
0.9924879048
1.007173807
1.013521581
1.00965981
0.9947254452
0.9681149108
0.9300600912
0.8811902632
0.8219798359
0.7553632184
0.6833878419
0.6066690651
0.5265179802
0.4440472316
0.3593013356
0.2702724874
0.1701441597
0.1180676581
0.1913203555
0.2350651179
0.2617393582
0.2780411055
0.2848663417
0.2827953511
0.2743660798
0.2570874261
0.2293548297
0.1880539264
0.1193821791
0.1062794842
0.191766411
0.2488766505
0.2918434286
0.3236537088
0.3463234619
0.3615561268
0.3705061491
0.3755556459
0.377752759
0.3786740287
0.3789494667
0.3789680133
0.3796184802
0.3803434858
0.3797498873
0.3769380648
0.3725989855
0.364830653
0.3538311947
0.3424573355
0.3257345102
0.2944090949
0.2560436209
0.2150125891
0.1609382724
0.1546639966
0.2273206722
0.2909923203
0.3498747967
0.4069349259
0.457396193
0.4954246316
0.483723606
0.5008764941
0.5448010895
0.5876172408
0.6288179651
0.6669917044
0.7025031371
0.7361777305
0.7689736852
0.8016194409
0.8327827654
0.8618417172
0.8881784208
0.9119884508
0.9329707505
0.9510080275
0.9660558957
0.9775929162
0.98642278
0.9922712555
0.995227539
0.9955383038
0.9941220462
0.9896709579
0.9837828799
0.9759780413
0.9664623984
0.9555647085
0.9434565959
0.9303349895
0.9161669134
0.901106321
0.8853609576
0.8690634466
0.8523452607
0.8353761908
0.8182401789
0.8009429053
0.783591459
0.7662726666
0.7490554818
0.7319747441
0.7150490734
0.6983321945
0.6818543616
0.6656312945
0.6496862659
0.6340413009
0.6187066477
0.6036882238
0.5889851336
0.5746063616
0.5605540809
0.5468314097
0.5334544998
0.5203858712
0.5076094194
0.4951773761
0.4830867619
0.4713046087
0.4598308637
0.4486614008
0.4377913438
0.4272166926
0.4169296256
0.4069265124
0.3972009779
0.3877436345
0.3785497763
0.3696129348
0.3609248081
0.3524781297
0.3442663176
0.3362830943
0.3285211913
0.3209721799
0.3136292187
0.30648593
0.2995362132
0.2927744786
0.2861952301
0.2797930312
0.2735630009
0.2675006658
0.2616022878
0.2558648224
0.2502847156
0.2448591058
0.2395868608
0.2344679292
0.2295008031
0.2246845286
0.2200190165
0.2155032442
0.2111358438
0.2069143734
0.2028342106
0.1988903919
0.1950837456
0.1913275955
)
;
    }
    inlet
    {
        type            calculated;
        value           uniform 0;
    }
    outlet
    {
        type            calculated;
        value           uniform 0;
    }
    walls
    {
        type            calculated;
        value           nonuniform List<scalar> 
300
(
54.13014485
54.11166428
54.09463011
54.09370202
54.0922713
54.09187712
54.09164694
54.09155428
54.09152651
54.09153868
54.09157974
54.09164606
54.09173827
54.09185949
54.09201467
54.09221038
54.09245469
54.09275728
54.09312961
54.09358515
54.09413968
54.09481166
54.09562267
54.09659794
54.0977669
54.09916396
54.10082917
54.10280916
54.10515798
54.10793805
54.11122116
54.11508925
54.11963536
54.12496416
54.13119086
54.13844264
54.14686238
54.15660027
54.16781236
54.18066703
54.19534522
54.21200408
54.23087065
54.25199147
54.27598319
54.30203215
54.33346414
54.36324549
54.41830985
54.4198207
54.13014017
54.11164922
54.09460178
54.09365712
54.09220458
54.09178109
54.09151195
54.09136731
54.09127089
54.0911928
54.09111656
54.09103173
54.09093081
54.0908074
54.09065536
54.09046839
54.09023987
54.08996273
54.08962965
54.08923314
54.08876581
54.0882208
54.08759219
54.08687572
54.08606954
54.08517517
54.08419869
54.08315208
54.08205479
54.08093555
54.07983436
54.0788047
54.07791596
54.07725605
54.07693388
54.0770829
54.0778647
54.07946871
54.08211911
54.08607091
54.09161668
54.09908008
54.10887287
54.12129312
54.13720815
54.1561745
54.18180142
54.20768597
54.26020727
54.26525217
54.05099103
53.75333031
53.4049375
53.08623156
52.77604145
52.48122425
52.20060984
51.93497684
51.6846542
51.44993862
51.23112319
51.02852145
50.8423904
50.67296589
50.52043556
50.38491922
50.26646179
50.16504028
50.08042084
50.01214416
49.95972242
49.92264223
49.90043558
49.89239619
49.89700961
49.91372982
49.94241758
49.98244316
50.03361185
50.09575158
50.16888077
50.25343873
50.34994738
50.45877695
50.58040126
50.71526591
50.86381728
51.0264811
51.20363137
51.39552326
51.60231558
51.82405887
52.06065535
52.31184584
52.57705208
52.85544024
53.14612858
53.45632941
53.80271955
54.15436936
54.02224976
53.68148583
53.34209386
53.03701143
52.75543661
52.49165488
52.24595895
52.01884481
51.81066684
51.62161171
51.45151502
51.30003702
51.16662719
51.05044839
50.95042488
50.86529308
50.79369094
50.73411475
50.68490436
50.64450278
50.6117362
50.58548146
50.56416964
50.54642068
50.53160009
50.52023598
50.5130485
50.50869324
50.50789486
50.51342786
50.52678445
50.54924778
50.58222793
50.62747131
50.68665142
50.76145601
50.85346705
50.96387652
51.09367606
51.24374311
51.41450125
51.60614728
51.81860314
52.05161186
52.30495288
52.57801056
52.87158017
53.18065262
53.52148894
53.84029569
54.4103401
54.39121002
54.34641135
54.31964549
54.29590539
54.27363559
54.25340761
54.23501051
54.21825524
54.20304369
54.18928287
54.17688198
54.16575368
54.15581017
54.14696217
54.1391183
54.13219038
54.12609499
54.12075153
54.11608387
54.11202094
54.10849695
54.10545151
54.1028295
54.10058086
54.09866032
54.09702711
54.09564462
54.09448003
54.09350407
54.09269066
54.09201667
54.09146162
54.09100746
54.09063842
54.09034064
54.09010219
54.08991273
54.08976342
54.08964677
54.08955644
54.08948715
54.0894346
54.08939479
54.08936695
54.08933934
54.08934808
54.08926087
54.0894641
54.08899057
54.14837972
54.141473
54.09834994
54.07827407
54.0647477
54.05491718
54.04837432
54.04436289
54.04232949
54.04185546
54.04258628
54.0442222
54.046514
54.04925693
54.05228249
54.05545393
54.0586622
54.06182222
54.06486957
54.06775736
54.0704534
54.07293768
54.07520007
54.07723833
54.07905633
54.08066261
54.08206902
54.08328972
54.08434021
54.0852367
54.08599541
54.08663225
54.08716239
54.08760004
54.08795835
54.08824917
54.08848325
54.08866994
54.08881755
54.08893315
54.08902285
54.08909173
54.08914414
54.08918317
54.08921379
54.08922873
54.08926757
54.08920186
54.08941697
54.08895312
)
;
    }
    AMI_out
    {
        type            cyclicAMI;
        value           uniform 0;
    }
    AMI_in
    {
        type            cyclicAMI;
        value           uniform 0;
    }
}


// ************************************************************************* //
