# Residuals       
# Time            	p                 	Ux                	Uy                	nut               	nuTilda           
0                 	N/A	N/A	N/A	N/A
