# Forces          
# CofR            : (0.0000000000e+00 0.0000000000e+00 0.0000000000e+00)
# Time            forces(pressure viscous porous)	moments(pressure viscous porous)
0                 	((0.0000000000e+00 0.0000000000e+00 0.0000000000e+00) (2.1143851399e-03 1.3129167966e-04 -7.3636174593e-23) (0.0000000000e+00 0.0000000000e+00 0.0000000000e+00)) ((0.0000000000e+00 0.0000000000e+00 0.0000000000e+00) (-6.5645839830e-08 1.0571925700e-06 2.1405085226e-05) (0.0000000000e+00 0.0000000000e+00 0.0000000000e+00))
0.002             	((7.2463893923e-02 2.0786965382e-02 1.5175001640e-20) (2.2719548995e-05 3.1032377976e-04 2.5553508089e-20) (0.0000000000e+00 0.0000000000e+00 0.0000000000e+00)) ((-1.0393482691e-05 3.6231946961e-05 1.4452644596e-04) (-1.5516188988e-07 1.1359774497e-08 -8.8408615502e-06) (0.0000000000e+00 0.0000000000e+00 0.0000000000e+00))
0.004             	((-2.0565078993e-02 -6.7818500654e-03 5.0642006490e-21) (-5.1767202157e-05 1.4141143017e-04 4.7031094315e-20) (0.0000000000e+00 0.0000000000e+00 0.0000000000e+00)) ((3.3909250327e-06 -1.0282539497e-05 -3.0656734901e-05) (-7.0705715087e-08 -2.5883601079e-08 -4.6660511199e-06) (0.0000000000e+00 0.0000000000e+00 0.0000000000e+00))
0.006             	((8.2344913501e-03 2.3745317849e-03 -3.4556147111e-22) (-2.0174845489e-06 1.1344721072e-04 9.3208284038e-20) (0.0000000000e+00 0.0000000000e+00 0.0000000000e+00)) ((-1.1872658925e-06 4.1172456750e-06 2.0717984510e-05) (-5.6723605360e-08 -1.0087422745e-09 -3.3070243973e-06) (0.0000000000e+00 0.0000000000e+00 0.0000000000e+00))
0.008             	((1.1616777343e-03 -4.6428771126e-05 6.1255206970e-23) (-1.3849025917e-05 7.6930548840e-05 5.5266386239e-20) (0.0000000000e+00 0.0000000000e+00 0.0000000000e+00)) ((2.3214385563e-08 5.8083886714e-07 1.3692668064e-05) (-3.8465274420e-08 -6.9245129583e-09 -2.3106038834e-06) (0.0000000000e+00 0.0000000000e+00 0.0000000000e+00))
0.01              	((3.9933599517e-03 9.7474765695e-04 2.7875473395e-21) (-3.4096777597e-06 6.2952582424e-05 5.2193330969e-20) (0.0000000000e+00 0.0000000000e+00 0.0000000000e+00)) ((-4.8737382847e-07 1.9966799759e-06 1.9753949545e-05) (-3.1476291212e-08 -1.7048388798e-09 -1.7738782723e-06) (0.0000000000e+00 0.0000000000e+00 0.0000000000e+00))
0.012             	((2.9059646383e-03 6.0517379193e-04 1.7594098802e-22) (-3.2348755182e-06 4.7884469796e-05 8.1866940862e-20) (0.0000000000e+00 0.0000000000e+00 0.0000000000e+00)) ((-3.0258689596e-07 1.4529823191e-06 1.9234716239e-05) (-2.3942234898e-08 -1.6174377591e-09 -1.3123689934e-06) (0.0000000000e+00 0.0000000000e+00 0.0000000000e+00))
0.014             	((3.2293560624e-03 7.5837550041e-04 -1.0990135734e-22) (3.1616854200e-07 3.7338272141e-05 7.4363582278e-20) (0.0000000000e+00 0.0000000000e+00 0.0000000000e+00)) ((-3.7918775020e-07 1.6146780312e-06 2.1058617097e-05) (-1.8669136070e-08 1.5808427100e-10 -9.5283493363e-07) (0.0000000000e+00 0.0000000000e+00 0.0000000000e+00))
0.016             	((3.0059759865e-03 7.0799489260e-04 7.0378099876e-22) (2.0054229214e-06 2.7915277902e-05 5.6076218683e-20) (0.0000000000e+00 0.0000000000e+00 0.0000000000e+00)) ((-3.5399744630e-07 1.5029879933e-06 2.1400409389e-05) (-1.3957638951e-08 1.0027114607e-09 -6.4960657295e-07) (0.0000000000e+00 0.0000000000e+00 0.0000000000e+00))
0.018             	((3.0091683219e-03 7.4677154594e-04 -6.3432851217e-22) (4.1502557908e-06 2.0263913422e-05 -2.4189519672e-19) (0.0000000000e+00 0.0000000000e+00 0.0000000000e+00)) ((-3.7338577297e-07 1.5045841610e-06 2.2201998136e-05) (-1.0131956711e-08 2.0751278954e-09 -3.9453765267e-07) (0.0000000000e+00 0.0000000000e+00 0.0000000000e+00))
0.02              	((2.9221672577e-03 7.5274428010e-04 -1.5268261046e-21) (5.8613216412e-06 1.3755127508e-05 3.9644411358e-19) (0.0000000000e+00 0.0000000000e+00 0.0000000000e+00)) ((-3.7637214005e-07 1.4610836289e-06 2.2533150943e-05) (-6.8775637540e-09 2.9306608206e-09 -1.7939313476e-07) (0.0000000000e+00 0.0000000000e+00 0.0000000000e+00))
0.022             	((2.8811372282e-03 7.7763198107e-04 -2.6495409634e-22) (7.5422026247e-06 8.3401173116e-06 -2.5386531138e-19) (0.0000000000e+00 0.0000000000e+00 0.0000000000e+00)) ((-3.8881599054e-07 1.4405686141e-06 2.2960349360e-05) (-4.1700586558e-09 3.7711013123e-09 3.1684127360e-09) (0.0000000000e+00 0.0000000000e+00 0.0000000000e+00))
0.024             	((2.8121710802e-03 7.9297941426e-04 1.3249912331e-21) (9.0487448303e-06 3.8280475566e-06 3.9069203062e-19) (0.0000000000e+00 0.0000000000e+00 0.0000000000e+00)) ((-3.9648970713e-07 1.4060855401e-06 2.3137433506e-05) (-1.9140237783e-09 4.5243724152e-09 1.5703831986e-07) (0.0000000000e+00 0.0000000000e+00 0.0000000000e+00))
