# Forces          
# CofR            : (0.0000000000e+00 0.0000000000e+00 0.0000000000e+00)
# Time            forces(pressure viscous porous)	moments(pressure viscous porous)
0                 	((0.0000000000e+00 0.0000000000e+00 0.0000000000e+00) (2.1143851399e-03 1.3129167966e-04 -7.3636174593e-23) (0.0000000000e+00 0.0000000000e+00 0.0000000000e+00)) ((0.0000000000e+00 0.0000000000e+00 0.0000000000e+00) (-6.5645839830e-08 1.0571925700e-06 2.1405085226e-05) (0.0000000000e+00 0.0000000000e+00 0.0000000000e+00))
