# y+ ()           
# Time            	patch             	min               	max               	average           
0                 	blade1	1.2721923401e+00	2.2580770619e+00	1.6296607655e+00
0                 	blade2	1.2721918767e+00	2.2580771162e+00	1.6296607853e+00
0                 	blade3	1.2721920008e+00	2.2580772193e+00	1.6296607865e+00
0                 	walls	4.9172996698e+01	5.4352282653e+01	5.3199511177e+01
