# Forces          
# CofR            : (0.0000000000e+00 0.0000000000e+00 0.0000000000e+00)
# Time            forces(pressure viscous porous)	moments(pressure viscous porous)
0                 	((0.0000000000e+00 0.0000000000e+00 0.0000000000e+00) (1.6814912515e-03 1.1863976545e-04 1.1878792704e-23) (0.0000000000e+00 0.0000000000e+00 0.0000000000e+00)) ((0.0000000000e+00 0.0000000000e+00 0.0000000000e+00) (-5.9319882724e-08 8.4074562574e-07 -5.4765735870e-05) (0.0000000000e+00 0.0000000000e+00 0.0000000000e+00))
