/*--------------------------------*- C++ -*----------------------------------*\
  =========                 |
  \\      /  F ield         | OpenFOAM: The Open Source CFD Toolbox
   \\    /   O peration     | Website:  https://openfoam.org
    \\  /    A nd           | Version:  dev
     \\/     M anipulation  |
\*---------------------------------------------------------------------------*/
FoamFile
{
    version     2.0;
    format      ascii;
    class       volScalarField;
    location    "0";
    object      yPlus;
}
// * * * * * * * * * * * * * * * * * * * * * * * * * * * * * * * * * * * * * //

dimensions      [0 0 0 0 0 0 0];

internalField   uniform 0;

boundaryField
{
    defaultFaces
    {
        type            empty;
    }
    blade1
    {
        type            calculated;
        value           nonuniform List<scalar> 
340
(
2.258077062
2.250147531
2.241775158
2.232939084
2.223618566
2.213792904
2.203440957
2.192541534
2.18107405
2.169018584
2.156355852
2.143067643
2.129137813
2.114552451
2.099300242
2.083373292
2.066768313
2.049488105
2.031542092
2.012948
1.993733676
1.973939978
1.953623061
1.932856256
1.911735148
1.890381822
1.868948091
1.847621669
1.824124643
1.799785461
1.778471585
1.760264902
1.745234708
1.733435001
1.724903056
1.719657546
1.717697061
1.719000146
1.72352528
1.73121156
1.741980069
1.75573469
1.769951769
1.78350646
1.797572736
1.811935515
1.826419008
1.840879441
1.855201454
1.869293911
1.883084709
1.896518593
1.90955416
1.922161881
1.934321002
1.946018662
1.957248251
1.968008662
1.978302932
1.988136562
1.997518368
2.006459201
2.014970665
2.023066362
2.030760489
2.038067753
2.045003052
2.051581137
2.057816965
2.063726043
1.289274191
1.293405582
1.297896429
1.302771412
1.308056806
1.313778704
1.319963383
1.326637696
1.333828099
1.34156109
1.349863002
1.358758728
1.368272142
1.378424762
1.389237081
1.400726206
1.412906692
1.42578903
1.439379177
1.453678594
1.4686828
1.484380914
1.500754082
1.517775835
1.535410236
1.553611008
1.572320657
1.591467386
1.613458648
1.637287486
1.659635632
1.680485781
1.699827432
1.717653859
1.733960168
1.748742534
1.761996267
1.773715439
1.783893176
1.792520592
1.799586211
1.805075846
1.808666467
1.810651939
1.811736703
1.812054211
1.811721844
1.810842679
1.809506825
1.807793439
1.805771834
1.803502574
1.801037523
1.798422455
1.795696968
1.792894569
1.790044684
1.787172332
1.784298722
1.78144155
1.778615686
1.77583402
1.773106787
1.770442091
1.767846446
1.765325112
1.762882072
1.760520388
1.758241382
1.756046353
2.251756998
2.230441671
2.209499898
2.188928999
2.168726663
2.148889844
2.129416448
2.110303723
2.091549316
2.073150596
2.05510549
2.037411067
2.020065284
2.003066171
1.986410878
1.970097588
1.954123821
1.938487225
1.923186085
1.908217874
1.893580483
1.879271882
1.865289494
1.85163144
1.838295948
1.82528043
1.812582979
1.800201512
1.7881337
1.77637747
1.764930444
1.753790959
1.7429564
1.732424378
1.722192926
1.712259747
1.702621887
1.693277833
1.68422474
1.675459536
1.666980576
1.658783827
1.650868097
1.643228574
1.635864057
1.628769592
1.621943391
1.615380114
1.609077089
1.603030287
1.597234633
1.591686925
1.58638089
1.581311154
1.576473324
1.571859869
1.567464053
1.563280383
1.559299086
1.555511438
1.551908767
1.548481597
1.545217223
1.542103208
1.539126271
1.536272799
1.533525463
1.530866523
1.528276629
1.525734629
1.523218036
1.520702209
1.51815962
1.515561244
1.512876407
1.510071657
1.507112485
1.50396192
1.500581043
1.496930847
1.492971508
1.488662156
1.483963633
1.478837635
1.473248045
1.467162168
1.460551695
1.453393303
1.445669153
1.437369081
1.4284907
1.419040662
1.409033061
1.398490198
1.387439692
1.375918327
1.363970523
1.351643704
1.338988347
1.326059314
1.322442671
1.335047656
1.34722972
1.358933356
1.370107333
1.380701119
1.390668351
1.399972753
1.408580335
1.416463325
1.423602821
1.429989656
1.435620989
1.440500803
1.444640573
1.448057525
1.450775944
1.452823587
1.45423315
1.455039991
1.455281084
1.454995327
1.454221706
1.452999817
1.451367599
1.449362795
1.44702158
1.444377886
1.441465427
1.438314708
1.434953936
1.431410085
1.427707425
1.423868705
1.419915921
1.415868614
1.411744065
1.407557686
1.403323927
1.399058562
1.394772898
1.390476519
1.386180637
1.381895574
1.377629029
1.373387307
1.369179992
1.365012857
1.360889843
1.356818852
1.352804064
1.348849702
1.34496077
1.341140144
1.337393171
1.333722536
1.330131925
1.326623586
1.323201682
1.319868724
1.316627394
1.313479693
1.310428774
1.307477343
1.304627081
1.301880915
1.299241373
1.296710378
1.294289923
1.291983334
1.289792221
1.287717933
1.285763162
1.283930765
1.282222445
1.280640859
1.279187537
1.277864672
1.276674649
1.275619692
1.274701443
1.273922719
1.273285493
1.272791449
1.272443224
1.272242868
1.27219234
1.272293085
1.272548099
1.272958996
1.273527658
1.274255896
1.275145846
1.276199227
1.27741773
1.278803605
1.280357728
1.282081903
1.283978067
1.286046933
)
;
    }
    blade2
    {
        type            calculated;
        value           nonuniform List<scalar> 
340
(
2.258077116
2.250147525
2.241774946
2.23293884
2.223618536
2.213792902
2.203440813
2.19254144
2.181074055
2.169018537
2.156355703
2.143067706
2.129137941
2.114552439
2.099300286
2.083373293
2.066768563
2.04948838
2.031542014
2.012947599
1.993733542
1.973940131
1.953623022
1.932856229
1.911735351
1.890381815
1.868947769
1.84762157
1.824124829
1.799785486
1.778471461
1.760265026
1.745234933
1.733435329
1.724903348
1.71965758
1.717697164
1.71900019
1.723525186
1.731211531
1.741979996
1.755735012
1.769952188
1.783506324
1.797572448
1.811935516
1.826418896
1.840879134
1.855201336
1.869293906
1.883084726
1.896518577
1.909554116
1.922161734
1.934320883
1.946018596
1.957248407
1.96800893
1.978302817
1.988136498
1.997518469
2.006458912
2.01497036
2.023066311
2.030760566
2.038067827
2.045002887
2.051581129
2.057817137
2.063726128
1.289274429
1.293405484
1.297896216
1.30277176
1.308057012
1.313778818
1.31996378
1.326637682
1.333827948
1.341560979
1.349863189
1.358759025
1.368272151
1.378424573
1.389236927
1.400726292
1.412906662
1.425788911
1.439379264
1.453678734
1.468683166
1.484381061
1.500753905
1.517775675
1.535410181
1.553611288
1.572320634
1.591466999
1.613458487
1.637287482
1.659635564
1.680485637
1.69982746
1.71765419
1.733960581
1.748742589
1.761995908
1.773715262
1.783893546
1.792520896
1.799586238
1.805076066
1.808666827
1.810652234
1.811736863
1.812054322
1.811721792
1.810842457
1.809506797
1.807793653
1.80577215
1.803502719
1.801037646
1.798422546
1.795696953
1.792894646
1.790044831
1.787172653
1.784298849
1.781441513
1.778615792
1.775834282
1.773106831
1.770441871
1.767846407
1.765325218
1.762882041
1.760520082
1.758241012
1.756046198
2.251756989
2.230441427
2.209499738
2.188928921
2.168726694
2.148890022
2.129416524
2.110303714
2.091549193
2.073150307
2.055105293
2.037411355
2.020065631
2.003066262
1.986410936
1.970097685
1.954123974
1.938487445
1.923186142
1.908217752
1.893580471
1.879271663
1.865289478
1.851631611
1.838295916
1.825280479
1.812583352
1.800201706
1.788133764
1.776377532
1.764930473
1.753790977
1.742956303
1.732424261
1.722192736
1.712259508
1.702621903
1.693277966
1.684224876
1.675459863
1.666980876
1.658783975
1.650868204
1.643228708
1.635864025
1.628769429
1.621943116
1.615380162
1.609077163
1.60303061
1.597234662
1.5916867
1.586380884
1.581311018
1.576473239
1.571860045
1.567464085
1.563280068
1.559298923
1.555511713
1.551908994
1.54848171
1.545217036
1.542103037
1.539126221
1.536272713
1.533525487
1.530866594
1.528276704
1.525734603
1.523218163
1.520702498
1.518159804
1.515561224
1.512876411
1.51007172
1.507112441
1.50396183
1.500581078
1.496930836
1.49297162
1.488662515
1.483963969
1.478837777
1.473248087
1.467162088
1.460551474
1.453393155
1.445669291
1.437369021
1.428490738
1.419040447
1.409032864
1.398490206
1.387439213
1.375918139
1.363970634
1.351643886
1.338988473
1.326059238
1.322442687
1.335047825
1.347229561
1.358933199
1.370107597
1.38070086
1.390668121
1.399972532
1.40858015
1.416463292
1.42360284
1.429989997
1.43562096
1.44050093
1.444640263
1.448057785
1.450776101
1.452823818
1.454233464
1.455039886
1.455280966
1.45499531
1.454221731
1.452999695
1.451367901
1.449363027
1.447021386
1.444377925
1.441465501
1.43831448
1.43495367
1.431410075
1.427707554
1.423868519
1.419915813
1.415868869
1.411744096
1.407557561
1.403324055
1.399058525
1.394772798
1.39047676
1.386181012
1.381895979
1.377629182
1.373387557
1.369180416
1.365013026
1.360890224
1.356819261
1.352804099
1.348849538
1.344960655
1.341140365
1.337393635
1.333722559
1.330131789
1.326623715
1.323201981
1.319868485
1.31662696
1.313479676
1.310428657
1.307477221
1.304626933
1.301880899
1.299241598
1.296710451
1.294290351
1.291983546
1.289792031
1.287717749
1.285762887
1.283930624
1.282222477
1.28064088
1.27918756
1.27786495
1.276674863
1.275619354
1.274701244
1.273922762
1.273285371
1.272791546
1.272443332
1.272242675
1.272191877
1.272293016
1.272548142
1.272959102
1.273527391
1.274255889
1.275146024
1.276199247
1.277418159
1.278803558
1.280357297
1.282081806
1.283978245
1.286046981
)
;
    }
    blade3
    {
        type            calculated;
        value           nonuniform List<scalar> 
340
(
2.258077219
2.250147571
2.24177494
2.232938822
2.223618622
2.213793144
2.20344101
2.192541576
2.181074055
2.169018413
2.15635583
2.14306773
2.129137922
2.114552644
2.099300334
2.083373221
2.066768294
2.04948823
2.031542238
2.01294779
1.99373352
1.973939958
1.953622878
1.932856388
1.911735327
1.890381733
1.86894788
1.847621452
1.824124531
1.799785355
1.778471564
1.760264797
1.745234669
1.733435327
1.724903493
1.71965778
1.717697087
1.71900002
1.72352526
1.73121163
1.741979867
1.755734624
1.769951771
1.783506277
1.797572514
1.81193544
1.826419021
1.840879627
1.855201704
1.86929396
1.883084746
1.896518482
1.909554115
1.922161825
1.934320928
1.946018745
1.957248507
1.968009047
1.978302993
1.988136449
1.997518361
2.006459066
2.014970686
2.023066648
2.030760671
2.038067618
2.045002781
2.051581067
2.057817111
2.063726209
1.289273977
1.293405052
1.297896187
1.302771504
1.308056915
1.313778894
1.31996369
1.326637696
1.333827826
1.341560975
1.34986294
1.358758724
1.368271815
1.378424365
1.389236746
1.400726137
1.412906772
1.425789021
1.439379255
1.453678809
1.468683211
1.484381332
1.500754333
1.51777603
1.535410402
1.553611333
1.572320825
1.591467242
1.613458635
1.637287498
1.659635599
1.680485837
1.699827671
1.71765422
1.733960441
1.748742552
1.761996185
1.77371562
1.783893444
1.792520637
1.799586056
1.805075925
1.808666649
1.810651949
1.811736732
1.812054242
1.81172179
1.810842609
1.809506685
1.807793527
1.80577216
1.803502618
1.801037502
1.798422261
1.795696728
1.792894707
1.790044852
1.787172571
1.784298824
1.781441454
1.778615783
1.775834352
1.773106991
1.770441937
1.767846353
1.765325217
1.762882172
1.760520217
1.75824114
1.756046375
2.251756958
2.230441497
2.209499921
2.188929108
2.168726747
2.148890153
2.129416685
2.110303881
2.09154934
2.073150354
2.05510539
2.037411174
2.020065323
2.003066108
1.986411116
1.970097718
1.954123773
1.938487314
1.923186066
1.908217835
1.893580525
1.879271751
1.86528955
1.851631529
1.83829579
1.825280297
1.812583049
1.800201635
1.788133943
1.776377704
1.764930514
1.753791054
1.74295659
1.732424332
1.722192859
1.712259941
1.702621989
1.693277852
1.684224906
1.675459686
1.666980633
1.658783827
1.65086815
1.64322847
1.635864098
1.628769764
1.621943166
1.615379842
1.609077102
1.603030457
1.597234562
1.591686918
1.586380872
1.581310986
1.576473246
1.571859919
1.567464195
1.563280224
1.559298836
1.555511585
1.551909038
1.548481656
1.545216909
1.542102912
1.539126242
1.536272644
1.533525381
1.530866494
1.528276593
1.525734682
1.523218084
1.520702153
1.518159426
1.515561042
1.512876341
1.510071866
1.507112433
1.503961862
1.500581158
1.496931059
1.49297151
1.488662107
1.483963721
1.478837503
1.473247941
1.467162067
1.460551678
1.453393187
1.445669594
1.437368937
1.428490692
1.419040684
1.409033499
1.398490373
1.387439838
1.375918343
1.363970712
1.351643698
1.338988582
1.326059324
1.32244291
1.335047912
1.347229816
1.35893304
1.370107763
1.380700611
1.39066825
1.399972705
1.408580555
1.416463117
1.423602629
1.429989989
1.435621079
1.440500735
1.444640135
1.448057201
1.450775411
1.452823447
1.454233337
1.455040255
1.455281229
1.454995282
1.454221817
1.452999643
1.451367413
1.449362863
1.447021776
1.444378303
1.441465814
1.438314835
1.434954037
1.431409836
1.427707078
1.423868472
1.41991604
1.415869029
1.411744408
1.407557605
1.403323892
1.39905845
1.394772581
1.390476682
1.38618065
1.381895583
1.377629363
1.373387434
1.369180218
1.365012806
1.360889941
1.356819304
1.352804425
1.348849834
1.34496092
1.3411405
1.337393415
1.33372255
1.330131984
1.32662366
1.323202063
1.319868809
1.316627001
1.31347943
1.31042851
1.307477487
1.304627064
1.301880892
1.299241771
1.296710332
1.294290248
1.291983479
1.289791686
1.28771734
1.285762968
1.283930508
1.282222774
1.280640953
1.279187525
1.277864675
1.276674654
1.27561948
1.274701457
1.273922783
1.273285561
1.272791663
1.27244326
1.272242636
1.272192001
1.272293082
1.272547918
1.272958955
1.273527714
1.27425572
1.275145806
1.276199274
1.277417905
1.278803819
1.280357753
1.28208203
1.283978257
1.286046989
)
;
    }
    inlet
    {
        type            calculated;
        value           uniform 0;
    }
    outlet
    {
        type            calculated;
        value           uniform 0;
    }
    walls
    {
        type            calculated;
        value           nonuniform List<scalar> 
300
(
54.35228265
54.35228265
54.35228265
54.35228265
54.35228265
54.35228265
54.35228265
54.35228265
54.35228265
54.35228265
54.35228265
54.35228265
54.35228265
54.35228265
54.35228265
54.35228265
54.35228265
54.35228265
54.35228265
54.35228265
54.35228265
54.35228265
54.35228265
54.35228265
54.35228265
54.35228265
54.35228265
54.35228265
54.35228265
54.35228265
54.35228265
54.35228265
54.35228265
54.35228265
54.35228265
54.35228265
54.35228265
54.35228265
54.35228265
54.35228265
54.35228265
54.35228265
54.35228265
54.35228265
54.35228265
54.35228265
54.35228265
54.35228265
54.35228265
54.35228265
54.35228265
54.35228265
54.35228265
54.35228265
54.35228265
54.35228265
54.35228265
54.35228265
54.35228265
54.35228265
54.35228265
54.35228265
54.35228265
54.35228265
54.35228265
54.35228265
54.35228265
54.35228265
54.35228265
54.35228265
54.35228265
54.35228265
54.35228265
54.35228265
54.35228265
54.35228265
54.35228265
54.35228265
54.35228265
54.35228265
54.35228265
54.35228265
54.35228265
54.35228265
54.35228265
54.35228265
54.35228265
54.35228265
54.35228265
54.35228265
54.35228265
54.35228265
54.35228265
54.35228265
54.35228265
54.35228265
54.35228265
54.35228265
54.35228265
54.35228265
54.03187281
53.66348267
53.30721953
52.96347261
52.63261838
52.31502051
52.01102922
51.72098076
51.44517997
51.18397462
50.93763191
50.70642928
50.49062688
50.29046791
50.10617838
49.9379671
49.78602496
49.65052525
49.53162236
49.42945181
49.34413039
49.2757558
49.22440604
49.19013977
49.1729967
49.1729967
49.19013977
49.22440604
49.2757558
49.34413039
49.42945181
49.53162236
49.65052525
49.78602496
49.9379671
50.10617838
50.29046791
50.49062688
50.70642928
50.93763191
51.18397462
51.44517997
51.72098076
52.01102922
52.31502051
52.63261838
52.96347261
53.30721953
53.66348267
54.03187281
54.03187281
53.66348267
53.30721953
52.96347261
52.63261838
52.31502051
52.01102922
51.72098076
51.44517997
51.18397462
50.93763191
50.70642928
50.49062688
50.29046791
50.10617838
49.9379671
49.78602496
49.65052525
49.53162236
49.42945181
49.34413039
49.2757558
49.22440604
49.19013977
49.1729967
49.1729967
49.19013977
49.22440604
49.2757558
49.34413039
49.42945181
49.53162236
49.65052525
49.78602496
49.9379671
50.10617838
50.29046791
50.49062688
50.70642928
50.93763191
51.18397462
51.44517997
51.72098076
52.01102922
52.31502051
52.63261838
52.96347261
53.30721953
53.66348267
54.03187281
54.35228265
54.35228265
54.35228265
54.35228265
54.35228265
54.35228265
54.35228265
54.35228265
54.35228265
54.35228265
54.35228265
54.35228265
54.35228265
54.35228265
54.35228265
54.35228265
54.35228265
54.35228265
54.35228265
54.35228265
54.35228265
54.35228265
54.35228265
54.35228265
54.35228265
54.35228265
54.35228265
54.35228265
54.35228265
54.35228265
54.35228265
54.35228265
54.35228265
54.35228265
54.35228265
54.35228265
54.35228265
54.35228265
54.35228265
54.35228265
54.35228265
54.35228265
54.35228265
54.35228265
54.35228265
54.35228265
54.35228265
54.35228265
54.35228265
54.35228265
54.35228265
54.35228265
54.35228265
54.35228265
54.35228265
54.35228265
54.35228265
54.35228265
54.35228265
54.35228265
54.35228265
54.35228265
54.35228265
54.35228265
54.35228265
54.35228265
54.35228265
54.35228265
54.35228265
54.35228265
54.35228265
54.35228265
54.35228265
54.35228265
54.35228265
54.35228265
54.35228265
54.35228265
54.35228265
54.35228265
54.35228265
54.35228265
54.35228265
54.35228265
54.35228265
54.35228265
54.35228265
54.35228265
54.35228265
54.35228265
54.35228265
54.35228265
54.35228265
54.35228265
54.35228265
54.35228265
54.35228265
54.35228265
54.35228265
54.35228265
)
;
    }
    AMI_out
    {
        type            cyclicAMI;
        value           uniform 0;
    }
    AMI_in
    {
        type            cyclicAMI;
        value           uniform 0;
    }
}


// ************************************************************************* //
