# Forces          
# CofR            : (0.0000000000e+00 0.0000000000e+00 0.0000000000e+00)
# Time            forces(pressure viscous porous)	moments(pressure viscous porous)
0                 	((0.0000000000e+00 0.0000000000e+00 0.0000000000e+00) (1.9088950432e-03 -2.4993143919e-04 1.3434612953e-22) (0.0000000000e+00 0.0000000000e+00 0.0000000000e+00)) ((0.0000000000e+00 0.0000000000e+00 0.0000000000e+00) (1.2496571959e-07 9.5444752158e-07 3.3360648486e-05) (0.0000000000e+00 0.0000000000e+00 0.0000000000e+00))
