# Forces          
# CofR            : (0.0000000000e+00 0.0000000000e+00 0.0000000000e+00)
# Time            forces(pressure viscous porous)	moments(pressure viscous porous)
0                 	((0.0000000000e+00 0.0000000000e+00 0.0000000000e+00) (1.9088950432e-03 -2.4993143919e-04 1.3434612953e-22) (0.0000000000e+00 0.0000000000e+00 0.0000000000e+00)) ((0.0000000000e+00 0.0000000000e+00 0.0000000000e+00) (1.2496571959e-07 9.5444752158e-07 3.3360648486e-05) (0.0000000000e+00 0.0000000000e+00 0.0000000000e+00))
0.002             	((4.6779150223e-02 -4.4717491597e-02 -1.6542592425e-21) (3.9191149843e-05 -1.1979050913e-04 5.7548692973e-20) (0.0000000000e+00 0.0000000000e+00 0.0000000000e+00)) ((2.2358745799e-05 2.3389575111e-05 -1.9653863714e-04) (5.9895254567e-08 1.9595574922e-08 -3.0350776166e-06) (0.0000000000e+00 0.0000000000e+00 0.0000000000e+00))
0.004             	((-1.3397117918e-02 1.3332897309e-02 -4.5649607959e-21) (-1.5314448789e-05 -2.2196854487e-05 5.2177740801e-20) (0.0000000000e+00 0.0000000000e+00 0.0000000000e+00)) ((-6.6664486546e-06 -6.6985589589e-06 9.0604138784e-05) (1.1098427243e-08 -7.6572243947e-09 -1.1609470070e-06) (0.0000000000e+00 0.0000000000e+00 0.0000000000e+00))
0.006             	((4.6731344725e-03 -3.5517083637e-03 -1.1792844910e-21) (1.1819659753e-05 -3.8683904449e-05 6.6762047178e-20) (0.0000000000e+00 0.0000000000e+00 0.0000000000e+00)) ((1.7758541819e-06 2.3365672363e-06 8.9594359380e-07) (1.9341952225e-08 5.9098298767e-09 -1.0336556459e-06) (0.0000000000e+00 0.0000000000e+00 0.0000000000e+00))
0.008             	((8.2746406479e-04 -3.6091968916e-05 -2.6351480479e-22) (5.2655029764e-06 -1.7810956803e-05 6.2904590580e-20) (0.0000000000e+00 0.0000000000e+00 0.0000000000e+00)) ((1.8045984458e-08 4.1373203240e-07 2.0305479382e-05) (8.9054784014e-09 2.6327514882e-09 -5.7314357170e-07) (0.0000000000e+00 0.0000000000e+00 0.0000000000e+00))
0.01              	((2.6990140757e-03 -1.6297083716e-03 1.0034627841e-21) (1.1998615833e-05 -1.5954855742e-05 7.1438506256e-20) (0.0000000000e+00 0.0000000000e+00 0.0000000000e+00)) ((8.1485418579e-07 1.3495070379e-06 1.0267854722e-05) (7.9774278708e-09 5.9993079165e-09 -3.7650171725e-07) (0.0000000000e+00 0.0000000000e+00 0.0000000000e+00))
0.012             	((2.1804754711e-03 -1.1157865710e-03 -1.3202801383e-21) (1.2194889219e-05 -8.8864142593e-06 7.5442108456e-20) (0.0000000000e+00 0.0000000000e+00 0.0000000000e+00)) ((5.5789328549e-07 1.0902377356e-06 1.3047799802e-05) (4.4432071297e-09 6.0974446094e-09 -1.6901808682e-07) (0.0000000000e+00 0.0000000000e+00 0.0000000000e+00))
0.014             	((2.5437217637e-03 -1.3689619047e-03 5.0425291030e-22) (1.4216887141e-05 -5.7283096511e-06 8.4361571827e-20) (0.0000000000e+00 0.0000000000e+00 0.0000000000e+00)) ((6.8448095234e-07 1.2718608818e-06 1.0249044133e-05) (2.8641548255e-09 7.1084435706e-09 -3.6036898900e-08) (0.0000000000e+00 0.0000000000e+00 0.0000000000e+00))
0.016             	((2.5537709348e-03 -1.3209521196e-03 -9.8168201286e-22) (1.4829470273e-05 -2.5593470056e-06 7.6412905324e-20) (0.0000000000e+00 0.0000000000e+00 0.0000000000e+00)) ((6.6047605982e-07 1.2768854674e-06 9.5672016684e-06) (1.2796735028e-09 7.4147351366e-09 6.8292747365e-08) (0.0000000000e+00 0.0000000000e+00 0.0000000000e+00))
0.018             	((2.6989779984e-03 -1.3929126611e-03 -1.5040778488e-21) (1.5434299320e-05 -6.8006930856e-07 -2.4186128610e-19) (0.0000000000e+00 0.0000000000e+00 0.0000000000e+00)) ((6.9645633057e-07 1.3494889992e-06 7.6429805440e-06) (3.4003465428e-10 7.7171496598e-09 1.3428365453e-07) (0.0000000000e+00 0.0000000000e+00 0.0000000000e+00))
0.02              	((2.7827920439e-03 -1.4139733426e-03 3.3569383722e-22) (1.5643428236e-05 6.8817810720e-07 3.8283930445e-19) (0.0000000000e+00 0.0000000000e+00 0.0000000000e+00)) ((7.0698667129e-07 1.3913960219e-06 6.1055992789e-06) (-3.4408905361e-10 7.8217141179e-09 1.7697310767e-07) (0.0000000000e+00 0.0000000000e+00 0.0000000000e+00))
0.022             	((2.8871514308e-03 -1.4552998535e-03 8.1244055768e-22) (1.5721883655e-05 1.4904451941e-06 -2.6617811229e-19) (0.0000000000e+00 0.0000000000e+00 0.0000000000e+00)) ((7.2764992673e-07 1.4435757154e-06 4.2330583038e-06) (-7.4522259706e-10 7.8609418277e-09 1.9999260183e-07) (0.0000000000e+00 0.0000000000e+00 0.0000000000e+00))
0.024             	((2.9811025489e-03 -1.4857151888e-03 9.9886612761e-22) (1.5660604555e-05 1.9618173538e-06 4.0037973935e-19) (0.0000000000e+00 0.0000000000e+00 0.0000000000e+00)) ((7.4285759439e-07 1.4905512745e-06 2.4274679437e-06) (-9.8090867693e-10 7.8303022773e-09 2.1029092893e-07) (0.0000000000e+00 0.0000000000e+00 0.0000000000e+00))
